 Entering Gaussian System, Link 0=g16
 Initial command:
 /apps/gaussian/16/A.03/g16/l1.exe "/local/Gau-45149.inp" -scrdir="/local/"
 Entering Link 1 = /apps/gaussian/16/A.03/g16/l1.exe PID=     45150.
  
 Copyright (c) 1988,1990,1992,1993,1995,1998,2003,2009,2016,
            Gaussian, Inc.  All Rights Reserved.
  
 This is part of the Gaussian(R) 16 program.  It is based on
 the Gaussian(R) 09 system (copyright 2009, Gaussian, Inc.),
 the Gaussian(R) 03 system (copyright 2003, Gaussian, Inc.),
 the Gaussian(R) 98 system (copyright 1998, Gaussian, Inc.),
 the Gaussian(R) 94 system (copyright 1995, Gaussian, Inc.),
 the Gaussian 92(TM) system (copyright 1992, Gaussian, Inc.),
 the Gaussian 90(TM) system (copyright 1990, Gaussian, Inc.),
 the Gaussian 88(TM) system (copyright 1988, Gaussian, Inc.),
 the Gaussian 86(TM) system (copyright 1986, Carnegie Mellon
 University), and the Gaussian 82(TM) system (copyright 1983,
 Carnegie Mellon University). Gaussian is a federally registered
 trademark of Gaussian, Inc.
  
 This software contains proprietary and confidential information,
 including trade secrets, belonging to Gaussian, Inc.
  
 This software is provided under written license and may be
 used, copied, transmitted, or stored only in accord with that
 written license.
  
 The following legend is applicable only to US Government
 contracts under FAR:
  
                    RESTRICTED RIGHTS LEGEND
  
 Use, reproduction and disclosure by the US Government is
 subject to restrictions as set forth in subparagraphs (a)
 and (c) of the Commercial Computer Software - Restricted
 Rights clause in FAR 52.227-19.
  
 Gaussian, Inc.
 340 Quinnipiac St., Bldg. 40, Wallingford CT 06492
  
  
 ---------------------------------------------------------------
 Warning -- This program may not be used in any manner that
 competes with the business of Gaussian, Inc. or will provide
 assistance to any competitor of Gaussian, Inc.  The licensee
 of this program is prohibited from giving any competitor of
 Gaussian, Inc. access to this program.  By using this program,
 the user acknowledges that Gaussian, Inc. is engaged in the
 business of creating and licensing software in the field of
 computational chemistry and represents and warrants to the
 licensee that it is not a competitor of Gaussian, Inc. and that
 it will not use this program in any manner prohibited above.
 ---------------------------------------------------------------
  

 Cite this work as:
 Gaussian 16, Revision A.03,
 M. J. Frisch, G. W. Trucks, H. B. Schlegel, G. E. Scuseria, 
 M. A. Robb, J. R. Cheeseman, G. Scalmani, V. Barone, 
 G. A. Petersson, H. Nakatsuji, X. Li, M. Caricato, A. V. Marenich, 
 J. Bloino, B. G. Janesko, R. Gomperts, B. Mennucci, H. P. Hratchian, 
 J. V. Ortiz, A. F. Izmaylov, J. L. Sonnenberg, D. Williams-Young, 
 F. Ding, F. Lipparini, F. Egidi, J. Goings, B. Peng, A. Petrone, 
 T. Henderson, D. Ranasinghe, V. G. Zakrzewski, J. Gao, N. Rega, 
 G. Zheng, W. Liang, M. Hada, M. Ehara, K. Toyota, R. Fukuda, 
 J. Hasegawa, M. Ishida, T. Nakajima, Y. Honda, O. Kitao, H. Nakai, 
 T. Vreven, K. Throssell, J. A. Montgomery, Jr., J. E. Peralta, 
 F. Ogliaro, M. J. Bearpark, J. J. Heyd, E. N. Brothers, K. N. Kudin, 
 V. N. Staroverov, T. A. Keith, R. Kobayashi, J. Normand, 
 K. Raghavachari, A. P. Rendell, J. C. Burant, S. S. Iyengar, 
 J. Tomasi, M. Cossi, J. M. Millam, M. Klene, C. Adamo, R. Cammi, 
 J. W. Ochterski, R. L. Martin, K. Morokuma, O. Farkas, 
 J. B. Foresman, and D. J. Fox, Gaussian, Inc., Wallingford CT, 2016.
 
 ******************************************
 Gaussian 16:  ES64L-G16RevA.03 25-Dec-2016
                18-Feb-2022 
 ******************************************
 %cpu=0-15
 SetSPE:  set environment variable "MP_BIND" = "yes"
 SetSPE:  set environment variable "MP_BLIST" = "0,1,2,3,4,5,6,7,8,9,10,11,12,13,14,15"
 Will use up to   16 processors via shared memory.
 %mem=42GB
 ----------------------------------------------------------------------
 #wb97xd def2tzvp opt=(calcfc,ts,noeigen,maxcycles=60,maxstep=3) freq=n
 oraman
 ----------------------------------------------------------------------
 1/5=1,6=60,8=3,10=4,11=1,18=20,26=3,38=1/1,3;
 2/9=110,12=2,17=6,18=5,40=1/2;
 3/5=44,7=101,11=2,25=1,30=1,71=2,74=-58,140=1/1,2,3;
 4//1;
 5/5=2,38=5/2;
 8/6=4,10=90,11=11/1;
 11/6=1,8=1,9=11,15=111,16=1/1,2,10;
 10/6=1,13=1/2;
 6/7=2,8=2,9=2,10=2,28=1/1;
 7/10=1,18=20,25=1/1,2,3,16;
 1/5=1,6=60,8=3,10=4,11=1,18=20,26=3/3(2);
 2/9=110/2;
 99//99;
 2/9=110/2;
 3/5=44,7=101,11=2,25=1,30=1,71=1,74=-58/1,2,3;
 4/5=5,16=3,69=1/1;
 5/5=2,38=5/2;
 7//1,2,3,16;
 1/5=1,6=60,8=3,11=1,18=20,26=3/3(-5);
 2/9=110/2;
 6/7=2,8=2,9=2,10=2,19=2,28=1/1;
 99/9=1/99;
 -------------------------
 1e_2b_endo_ts_6_reopt.out
 -------------------------
 Symbolic Z-matrix:
 Charge =  0 Multiplicity = 1
 C                    -1.37175   1.85783  -1.10364 
 C                     0.40069   0.51899  -1.29027 
 C                    -2.0501   -0.83144  -0.24548 
 C                     0.06752  -0.72971  -0.87871 
 C                    -1.79166   1.56443   0.16597 
 C                    -2.11455   0.26036   0.58287 
 H                    -1.7       2.32689   0.92953 
 H                    -1.02394   2.85434  -1.34536 
 H                    -2.13139  -0.68142  -1.31473 
 H                    -1.64373   1.23577  -1.94507 
 H                    -0.07502  -1.73975  -1.21715 
 H                    -2.25667   0.09175   1.64459 
 C                     1.09991  -0.0248   -0.13621 
 H                     0.69187   1.09527  -2.15084 
 C                    -2.27534  -2.22823   0.26147 
 H                    -2.09635  -2.97169  -0.51561 
 H                    -1.61719  -2.44932   1.10274 
 H                    -3.30567  -2.35307   0.60233 
 Cl                    2.80308  -0.54684  -0.36171 
 Cl                    0.92454   0.56253   1.54251 
 
 Add virtual bond connecting atoms C2         and C1         Dist= 4.21D+00.
 Add virtual bond connecting atoms C2         and H10        Dist= 4.28D+00.
 Add virtual bond connecting atoms C4         and C3         Dist= 4.18D+00.
 Add virtual bond connecting atoms C4         and H9         Dist= 4.24D+00.
 Add virtual bond connecting atoms H11        and H9         Dist= 4.37D+00.

 GradGradGradGradGradGradGradGradGradGradGradGradGradGradGradGradGradGrad
 Berny optimization.
 Initialization pass.
                           ----------------------------
                           !    Initial Parameters    !
                           ! (Angstroms and Degrees)  !
 --------------------------                            --------------------------
 ! Name  Definition              Value          Derivative Info.                !
 --------------------------------------------------------------------------------
 ! R1    R(1,2)                  2.2291         calculate D2E/DX2 analytically  !
 ! R2    R(1,5)                  1.3691         calculate D2E/DX2 analytically  !
 ! R3    R(1,8)                  1.0828         calculate D2E/DX2 analytically  !
 ! R4    R(1,10)                 1.0812         calculate D2E/DX2 analytically  !
 ! R5    R(2,4)                  1.3563         calculate D2E/DX2 analytically  !
 ! R6    R(2,10)                 2.2632         calculate D2E/DX2 analytically  !
 ! R7    R(2,13)                 1.4548         calculate D2E/DX2 analytically  !
 ! R8    R(2,14)                 1.0759         calculate D2E/DX2 analytically  !
 ! R9    R(3,4)                  2.2126         calculate D2E/DX2 analytically  !
 ! R10   R(3,6)                  1.372          calculate D2E/DX2 analytically  !
 ! R11   R(3,9)                  1.0828         calculate D2E/DX2 analytically  !
 ! R12   R(3,15)                 1.5029         calculate D2E/DX2 analytically  !
 ! R13   R(4,9)                  2.2422         calculate D2E/DX2 analytically  !
 ! R14   R(4,11)                 1.0747         calculate D2E/DX2 analytically  !
 ! R15   R(4,13)                 1.454          calculate D2E/DX2 analytically  !
 ! R16   R(5,6)                  1.4066         calculate D2E/DX2 analytically  !
 ! R17   R(5,7)                  1.0829         calculate D2E/DX2 analytically  !
 ! R18   R(6,12)                 1.0844         calculate D2E/DX2 analytically  !
 ! R19   R(9,11)                 2.3148         calculate D2E/DX2 analytically  !
 ! R20   R(13,19)                1.7956         calculate D2E/DX2 analytically  !
 ! R21   R(13,20)                1.7871         calculate D2E/DX2 analytically  !
 ! R22   R(15,16)                1.0902         calculate D2E/DX2 analytically  !
 ! R23   R(15,17)                1.0908         calculate D2E/DX2 analytically  !
 ! R24   R(15,18)                1.0924         calculate D2E/DX2 analytically  !
 ! A1    A(2,1,5)              101.1166         calculate D2E/DX2 analytically  !
 ! A2    A(2,1,8)              106.1802         calculate D2E/DX2 analytically  !
 ! A3    A(5,1,8)              120.1838         calculate D2E/DX2 analytically  !
 ! A4    A(5,1,10)             121.4171         calculate D2E/DX2 analytically  !
 ! A5    A(8,1,10)             115.8858         calculate D2E/DX2 analytically  !
 ! A6    A(1,2,4)              109.4045         calculate D2E/DX2 analytically  !
 ! A7    A(1,2,13)             122.7009         calculate D2E/DX2 analytically  !
 ! A8    A(1,2,14)              87.7336         calculate D2E/DX2 analytically  !
 ! A9    A(4,2,10)              99.0603         calculate D2E/DX2 analytically  !
 ! A10   A(4,2,14)             143.3542         calculate D2E/DX2 analytically  !
 ! A11   A(10,2,13)            141.4489         calculate D2E/DX2 analytically  !
 ! A12   A(10,2,14)             80.9912         calculate D2E/DX2 analytically  !
 ! A13   A(13,2,14)            134.8029         calculate D2E/DX2 analytically  !
 ! A14   A(4,3,6)              100.4374         calculate D2E/DX2 analytically  !
 ! A15   A(4,3,15)             106.4215         calculate D2E/DX2 analytically  !
 ! A16   A(6,3,9)              118.8445         calculate D2E/DX2 analytically  !
 ! A17   A(6,3,15)             121.9307         calculate D2E/DX2 analytically  !
 ! A18   A(9,3,15)             116.783          calculate D2E/DX2 analytically  !
 ! A19   A(2,4,3)              111.3623         calculate D2E/DX2 analytically  !
 ! A20   A(2,4,9)               99.3265         calculate D2E/DX2 analytically  !
 ! A21   A(2,4,11)             143.3461         calculate D2E/DX2 analytically  !
 ! A22   A(3,4,11)              85.4102         calculate D2E/DX2 analytically  !
 ! A23   A(3,4,13)             123.7594         calculate D2E/DX2 analytically  !
 ! A24   A(9,4,13)             141.7381         calculate D2E/DX2 analytically  !
 ! A25   A(11,4,13)            135.2856         calculate D2E/DX2 analytically  !
 ! A26   A(1,5,6)              122.9519         calculate D2E/DX2 analytically  !
 ! A27   A(1,5,7)              118.4906         calculate D2E/DX2 analytically  !
 ! A28   A(6,5,7)              117.5923         calculate D2E/DX2 analytically  !
 ! A29   A(3,6,5)              123.2316         calculate D2E/DX2 analytically  !
 ! A30   A(3,6,12)             118.2659         calculate D2E/DX2 analytically  !
 ! A31   A(5,6,12)             117.6727         calculate D2E/DX2 analytically  !
 ! A32   A(3,9,11)              80.1152         calculate D2E/DX2 analytically  !
 ! A33   A(2,13,19)            117.7061         calculate D2E/DX2 analytically  !
 ! A34   A(2,13,20)            125.1099         calculate D2E/DX2 analytically  !
 ! A35   A(4,13,19)            117.9314         calculate D2E/DX2 analytically  !
 ! A36   A(4,13,20)            124.7049         calculate D2E/DX2 analytically  !
 ! A37   A(19,13,20)           107.8541         calculate D2E/DX2 analytically  !
 ! A38   A(3,15,16)            111.6382         calculate D2E/DX2 analytically  !
 ! A39   A(3,15,17)            110.984          calculate D2E/DX2 analytically  !
 ! A40   A(3,15,18)            110.6595         calculate D2E/DX2 analytically  !
 ! A41   A(16,15,17)           108.2067         calculate D2E/DX2 analytically  !
 ! A42   A(16,15,18)           107.4165         calculate D2E/DX2 analytically  !
 ! A43   A(17,15,18)           107.7748         calculate D2E/DX2 analytically  !
 ! D1    D(5,1,2,4)             48.0987         calculate D2E/DX2 analytically  !
 ! D2    D(5,1,2,13)           -20.6813         calculate D2E/DX2 analytically  !
 ! D3    D(5,1,2,14)          -165.0362         calculate D2E/DX2 analytically  !
 ! D4    D(8,1,2,4)            174.2937         calculate D2E/DX2 analytically  !
 ! D5    D(8,1,2,13)           105.5137         calculate D2E/DX2 analytically  !
 ! D6    D(8,1,2,14)           -38.8412         calculate D2E/DX2 analytically  !
 ! D7    D(2,1,5,6)            -56.508          calculate D2E/DX2 analytically  !
 ! D8    D(2,1,5,7)            111.9693         calculate D2E/DX2 analytically  !
 ! D9    D(8,1,5,6)           -172.7919         calculate D2E/DX2 analytically  !
 ! D10   D(8,1,5,7)             -4.3145         calculate D2E/DX2 analytically  !
 ! D11   D(10,1,5,6)            25.9297         calculate D2E/DX2 analytically  !
 ! D12   D(10,1,5,7)          -165.5929         calculate D2E/DX2 analytically  !
 ! D13   D(1,2,4,3)              0.4316         calculate D2E/DX2 analytically  !
 ! D14   D(1,2,4,9)             26.8663         calculate D2E/DX2 analytically  !
 ! D15   D(1,2,4,11)           112.8707         calculate D2E/DX2 analytically  !
 ! D16   D(10,2,4,3)           -26.2912         calculate D2E/DX2 analytically  !
 ! D17   D(10,2,4,9)             0.1435         calculate D2E/DX2 analytically  !
 ! D18   D(10,2,4,11)           86.1479         calculate D2E/DX2 analytically  !
 ! D19   D(14,2,4,3)          -113.3504         calculate D2E/DX2 analytically  !
 ! D20   D(14,2,4,9)           -86.9157         calculate D2E/DX2 analytically  !
 ! D21   D(14,2,4,11)           -0.9113         calculate D2E/DX2 analytically  !
 ! D22   D(1,2,13,19)         -157.4706         calculate D2E/DX2 analytically  !
 ! D23   D(1,2,13,20)          -15.0473         calculate D2E/DX2 analytically  !
 ! D24   D(10,2,13,19)         174.2303         calculate D2E/DX2 analytically  !
 ! D25   D(10,2,13,20)         -43.3464         calculate D2E/DX2 analytically  !
 ! D26   D(14,2,13,19)         -32.6244         calculate D2E/DX2 analytically  !
 ! D27   D(14,2,13,20)         109.7989         calculate D2E/DX2 analytically  !
 ! D28   D(6,3,4,2)            -48.7504         calculate D2E/DX2 analytically  !
 ! D29   D(6,3,4,11)           164.8609         calculate D2E/DX2 analytically  !
 ! D30   D(6,3,4,13)            21.3623         calculate D2E/DX2 analytically  !
 ! D31   D(15,3,4,2)          -176.6989         calculate D2E/DX2 analytically  !
 ! D32   D(15,3,4,11)           36.9124         calculate D2E/DX2 analytically  !
 ! D33   D(15,3,4,13)         -106.5863         calculate D2E/DX2 analytically  !
 ! D34   D(4,3,6,5)             57.134          calculate D2E/DX2 analytically  !
 ! D35   D(4,3,6,12)          -112.1802         calculate D2E/DX2 analytically  !
 ! D36   D(9,3,6,5)            -24.2042         calculate D2E/DX2 analytically  !
 ! D37   D(9,3,6,12)           166.4816         calculate D2E/DX2 analytically  !
 ! D38   D(15,3,6,5)           174.1028         calculate D2E/DX2 analytically  !
 ! D39   D(15,3,6,12)            4.7886         calculate D2E/DX2 analytically  !
 ! D40   D(6,3,9,11)           122.4434         calculate D2E/DX2 analytically  !
 ! D41   D(15,3,9,11)          -74.931          calculate D2E/DX2 analytically  !
 ! D42   D(4,3,15,16)          -60.872          calculate D2E/DX2 analytically  !
 ! D43   D(4,3,15,17)           59.9357         calculate D2E/DX2 analytically  !
 ! D44   D(4,3,15,18)          179.5428         calculate D2E/DX2 analytically  !
 ! D45   D(6,3,15,16)         -174.8388         calculate D2E/DX2 analytically  !
 ! D46   D(6,3,15,17)          -54.0311         calculate D2E/DX2 analytically  !
 ! D47   D(6,3,15,18)           65.576          calculate D2E/DX2 analytically  !
 ! D48   D(9,3,15,16)           23.1121         calculate D2E/DX2 analytically  !
 ! D49   D(9,3,15,17)          143.9198         calculate D2E/DX2 analytically  !
 ! D50   D(9,3,15,18)          -96.4731         calculate D2E/DX2 analytically  !
 ! D51   D(11,4,9,3)            98.774          calculate D2E/DX2 analytically  !
 ! D52   D(3,4,13,19)          155.8187         calculate D2E/DX2 analytically  !
 ! D53   D(3,4,13,20)           13.6993         calculate D2E/DX2 analytically  !
 ! D54   D(9,4,13,19)         -174.1223         calculate D2E/DX2 analytically  !
 ! D55   D(9,4,13,20)           43.7582         calculate D2E/DX2 analytically  !
 ! D56   D(11,4,13,19)          33.2501         calculate D2E/DX2 analytically  !
 ! D57   D(11,4,13,20)        -108.8693         calculate D2E/DX2 analytically  !
 ! D58   D(1,5,6,3)             -0.6134         calculate D2E/DX2 analytically  !
 ! D59   D(1,5,6,12)           168.7601         calculate D2E/DX2 analytically  !
 ! D60   D(7,5,6,3)           -169.1879         calculate D2E/DX2 analytically  !
 ! D61   D(7,5,6,12)             0.1856         calculate D2E/DX2 analytically  !
 --------------------------------------------------------------------------------
 Trust Radius=3.00D-02 FncErr=1.00D-07 GrdErr=1.00D-06 EigMax=2.50D+02 EigMin=1.00D-04
 Number of steps in this run=     60 maximum allowed number of steps=    120.
 Search for a saddle point of order  1.
 GradGradGradGradGradGradGradGradGradGradGradGradGradGradGradGradGradGrad

                          Input orientation:                          
 ---------------------------------------------------------------------
 Center     Atomic      Atomic             Coordinates (Angstroms)
 Number     Number       Type             X           Y           Z
 ---------------------------------------------------------------------
      1          6           0       -1.371750    1.857830   -1.103640
      2          6           0        0.400690    0.518990   -1.290270
      3          6           0       -2.050100   -0.831440   -0.245480
      4          6           0        0.067520   -0.729710   -0.878710
      5          6           0       -1.791660    1.564430    0.165970
      6          6           0       -2.114550    0.260360    0.582870
      7          1           0       -1.700000    2.326890    0.929530
      8          1           0       -1.023940    2.854340   -1.345360
      9          1           0       -2.131390   -0.681420   -1.314730
     10          1           0       -1.643730    1.235770   -1.945070
     11          1           0       -0.075020   -1.739750   -1.217150
     12          1           0       -2.256670    0.091750    1.644590
     13          6           0        1.099910   -0.024800   -0.136210
     14          1           0        0.691870    1.095270   -2.150840
     15          6           0       -2.275340   -2.228230    0.261470
     16          1           0       -2.096350   -2.971690   -0.515610
     17          1           0       -1.617190   -2.449320    1.102740
     18          1           0       -3.305670   -2.353070    0.602330
     19         17           0        2.803080   -0.546840   -0.361710
     20         17           0        0.924540    0.562530    1.542510
 ---------------------------------------------------------------------
                    Distance matrix (angstroms):
                    1          2          3          4          5
     1  C    0.000000
     2  C    2.229096   0.000000
     3  C    2.903234   2.986908   0.000000
     4  C    2.969420   1.356332   2.212610   0.000000
     5  C    1.369057   2.831957   2.444642   3.132249   0.000000
     6  C    2.438848   3.146740   1.371986   2.806757   1.406649
     7  H    2.112237   3.550903   3.387959   3.966946   1.082945
     8  H    1.082789   2.736141   3.980919   3.775508   2.130113
     9  H    2.658835   2.802323   1.082779   2.242242   2.711408
    10  H    1.081174   2.263226   2.706862   2.815779   2.141586
    11  H    3.825830   2.309449   2.381199   1.074728   3.972088
    12  H    3.384507   3.982148   2.113603   3.527563   2.138069
    13  C    3.254123   1.454809   3.253486   1.453972   3.313328
    14  H    2.436525   1.075856   3.854998   2.310558   3.428650
    15  C    4.401805   4.137179   1.502915   3.005755   3.824570
    16  H    4.918850   4.361210   2.157726   3.136981   4.597148
    17  H    4.845606   4.313838   2.150033   3.117924   4.125308
    18  H    4.937819   5.056458   2.147230   4.025815   4.222492
    19  Cl   4.874639   2.787417   4.862907   2.789985   5.084048
    20  Cl   3.735353   2.881138   3.740126   2.875182   3.205684
                    6          7          8          9         10
     6  C    0.000000
     7  H    2.136018   0.000000
     8  H    3.411192   2.431128   0.000000
     9  H    2.118518   3.777927   3.705264   0.000000
    10  H    2.750196   3.075229   1.834001   2.076237   0.000000
    11  H    3.376417   4.877126   4.692819   2.314788   3.441575
    12  H    1.084379   2.411855   4.253390   3.061219   3.817085
    13  C    3.306228   3.808641   3.776537   3.501622   3.519740
    14  H    4.005776   4.089818   2.585948   3.438968   2.348853
    15  C    2.514405   4.639659   5.475438   2.213086   4.155364
    16  H    3.413669   5.506403   5.981737   2.425934   4.466648
    17  H    2.803569   4.780067   5.871452   3.038755   4.782232
    18  H    2.872135   4.958554   6.009734   2.801511   4.704366
    19  Cl   5.072168   5.495758   5.213605   5.027460   5.045676
    20  Cl   3.201294   3.221323   4.169983   4.364624   4.383204
                   11         12         13         14         15
    11  H    0.000000
    12  H    4.037765   0.000000
    13  C    2.343063   3.801508   0.000000
    14  H    3.081759   4.909810   2.340895   0.000000
    15  C    2.695615   2.701051   4.050378   5.066481   0.000000
    16  H    2.468929   3.751910   4.363964   5.195028   1.090240
    17  H    2.874660   2.675738   3.846547   5.336821   1.090769
    18  H    3.758160   2.857245   5.037402   5.954101   1.092406
    19  Cl   3.230831   5.480338   1.795596   3.217875   5.385701
    20  Cl   3.730327   3.217476   1.787124   3.738821   4.434934
                   16         17         18         19         20
    16  H    0.000000
    17  H    1.766783   0.000000
    18  H    1.759243   1.763700   0.000000
    19  Cl   5.468820   5.030192   6.442722   0.000000
    20  Cl   5.084520   3.965480   5.222963   2.895802   0.000000
 Stoichiometry    C8H10Cl2
 Framework group  C1[X(C8H10Cl2)]
 Deg. of freedom    54
 Full point group                 C1      NOp   1
 Largest Abelian subgroup         C1      NOp   1
 Largest concise Abelian subgroup C1      NOp   1
                         Standard orientation:                         
 ---------------------------------------------------------------------
 Center     Atomic      Atomic             Coordinates (Angstroms)
 Number     Number       Type             X           Y           Z
 ---------------------------------------------------------------------
      1          6           0        1.371746   -1.857830   -1.103640
      2          6           0       -0.400693   -0.518989   -1.290270
      3          6           0        2.050098    0.831439   -0.245480
      4          6           0       -0.067522    0.729711   -0.878710
      5          6           0        1.791656   -1.564431    0.165970
      6          6           0        2.114547   -0.260361    0.582870
      7          1           0        1.699995   -2.326891    0.929530
      8          1           0        1.023935   -2.854340   -1.345360
      9          1           0        2.131388    0.681419   -1.314730
     10          1           0        1.643726   -1.235771   -1.945070
     11          1           0        0.075019    1.739751   -1.217150
     12          1           0        2.256667   -0.091751    1.644590
     13          6           0       -1.099912    0.024802   -0.136210
     14          1           0       -0.691873   -1.095269   -2.150840
     15          6           0        2.275340    2.228229    0.261470
     16          1           0        2.096350    2.971689   -0.515610
     17          1           0        1.617190    2.449319    1.102740
     18          1           0        3.305670    2.353068    0.602330
     19         17           0       -2.803082    0.546843   -0.361710
     20         17           0       -0.924543   -0.562528    1.542510
 ---------------------------------------------------------------------
 Rotational constants (GHZ):           1.3759982           0.6851086           0.6370000
 Standard basis: def2TZVP (5D, 7F)
 There are   432 symmetry adapted cartesian basis functions of A   symmetry.
 There are   382 symmetry adapted basis functions of A   symmetry.
   382 basis functions,   626 primitive gaussians,   432 cartesian basis functions
    46 alpha electrons       46 beta electrons
       nuclear repulsion energy       695.3840972492 Hartrees.
 NAtoms=   20 NActive=   20 NUniq=   20 SFac= 1.00D+00 NAtFMM=   60 NAOKFM=F Big=F
 Integral buffers will be    131072 words long.
 Raffenetti 2 integral format.
 Two-electron integral symmetry is turned on.
 Nuclear repulsion after empirical dispersion term =      695.3695231878 Hartrees.
 One-electron integrals computed using PRISM.
   1 Symmetry operations used in ECPInt.
 ECPInt:  NShTT=   11935 NPrTT=   37953 LenC2=   11504 LenP2D=   27895.
 LDataN:  DoStor=T MaxTD1= 6 Len=  172
 NBasis=   382 RedAO= T EigKep=  5.51D-05  NBF=   382
 NBsUse=   382 1.00D-06 EigRej= -1.00D+00 NBFU=   382
 ExpMin= 9.52D-02 ExpMax= 6.95D+04 ExpMxC= 2.37D+03 IAcc=3 IRadAn=         5 AccDes= 0.00D+00
 Harris functional with IExCor= 4639 and IRadAn=       5 diagonalized for initial guess.
 HarFok:  IExCor= 4639 AccDes= 0.00D+00 IRadAn=         5 IDoV= 1 UseB2=F ITyADJ=14
 ICtDFT=  3500011 ScaDFX=  1.000000  1.000000  1.000000  1.000000
 FoFCou: FMM=F IPFlag=           0 FMFlag=      100000 FMFlg1=           0
         NFxFlg=           0 DoJE=T BraDBF=F KetDBF=T FulRan=T
         wScrn=  0.000000 ICntrl=       500 IOpCl=  0 I1Cent=   200000004 NGrid=           0
         NMat0=    1 NMatS0=      1 NMatT0=    0 NMatD0=    1 NMtDS0=    0 NMtDT0=    0
 Petite list used in FoFCou.
 Requested convergence on RMS density matrix=1.00D-08 within 128 cycles.
 Requested convergence on MAX density matrix=1.00D-06.
 Requested convergence on             energy=1.00D-06.
 No special actions if energy rises.
 Integral accuracy reduced to 1.0D-05 until final iterations.
 Initial convergence to 1.0D-05 achieved.  Increase integral accuracy.
 SCF Done:  E(RwB97XD) =  -1231.13064437     A.U. after   16 cycles
            NFock= 16  Conv=0.68D-08     -V/T= 2.0024
 DoSCS=F DFT=T ScalE2(SS,OS)=  1.000000  1.000000
 Range of M.O.s used for correlation:     1   382
 NBasis=   382 NAE=    46 NBE=    46 NFC=     0 NFV=     0
 NROrb=    382 NOA=    46 NOB=    46 NVA=   336 NVB=   336

 **** Warning!!: The largest alpha MO coefficient is  0.30197917D+02

   1 Symmetry operations used in ECPInt.
 ECPInt:  NShTT=   11935 NPrTT=   37953 LenC2=   11504 LenP2D=   27895.
 LDataN:  DoStor=T MaxTD1= 7 Len=  274
 Symmetrizing basis deriv contribution to polar:
 IMax=3 JMax=2 DiffMx= 0.00D+00
 G2DrvN: will do    21 centers at a time, making    1 passes.
 Calling FoFCou, ICntrl=  3107 FMM=F I1Cent=   0 AccDes= 0.00D+00.
 End of G2Drv F.D. properties file   721 does not exist.
 End of G2Drv F.D. properties file   722 does not exist.
 End of G2Drv F.D. properties file   788 does not exist.
          IDoAtm=11111111111111111111
          Differentiating once with respect to nuclear coordinates.
 Keep R1 ints in memory in canonical form, NReq=5392036678.
          There are    63 degrees of freedom in the 1st order CPHF.  IDoFFX=6 NUNeed=     0.
     57 vectors produced by pass  0 Test12= 2.45D-14 1.59D-09 XBig12= 7.35D-02 6.43D-02.
 AX will form    57 AO Fock derivatives at one time.
     57 vectors produced by pass  1 Test12= 2.45D-14 1.59D-09 XBig12= 7.85D-03 2.32D-02.
     57 vectors produced by pass  2 Test12= 2.45D-14 1.59D-09 XBig12= 2.13D-04 3.30D-03.
     57 vectors produced by pass  3 Test12= 2.45D-14 1.59D-09 XBig12= 2.87D-06 3.09D-04.
     57 vectors produced by pass  4 Test12= 2.45D-14 1.59D-09 XBig12= 3.08D-08 3.02D-05.
     57 vectors produced by pass  5 Test12= 2.45D-14 1.59D-09 XBig12= 3.25D-10 2.07D-06.
     57 vectors produced by pass  6 Test12= 2.45D-14 1.59D-09 XBig12= 3.13D-12 2.07D-07.
     25 vectors produced by pass  7 Test12= 2.45D-14 1.59D-09 XBig12= 2.26D-14 1.90D-08.
 InvSVY:  IOpt=1 It=  1 EMax= 3.33D-16
 Solved reduced A of dimension   424 with    63 vectors.
 End of Minotr F.D. properties file   721 does not exist.
 End of Minotr F.D. properties file   722 does not exist.
 End of Minotr F.D. properties file   788 does not exist.

 **********************************************************************

            Population analysis using the SCF density.

 **********************************************************************

 Orbital symmetries:
       Occupied  (A) (A) (A) (A) (A) (A) (A) (A) (A) (A) (A) (A)
                 (A) (A) (A) (A) (A) (A) (A) (A) (A) (A) (A) (A)
                 (A) (A) (A) (A) (A) (A) (A) (A) (A) (A) (A) (A)
                 (A) (A) (A) (A) (A) (A) (A) (A) (A) (A)
       Virtual   (A) (A) (A) (A) (A) (A) (A) (A) (A) (A) (A) (A)
                 (A) (A) (A) (A) (A) (A) (A) (A) (A) (A) (A) (A)
                 (A) (A) (A) (A) (A) (A) (A) (A) (A) (A) (A) (A)
                 (A) (A) (A) (A) (A) (A) (A) (A) (A) (A) (A) (A)
                 (A) (A) (A) (A) (A) (A) (A) (A) (A) (A) (A) (A)
                 (A) (A) (A) (A) (A) (A) (A) (A) (A) (A) (A) (A)
                 (A) (A) (A) (A) (A) (A) (A) (A) (A) (A) (A) (A)
                 (A) (A) (A) (A) (A) (A) (A) (A) (A) (A) (A) (A)
                 (A) (A) (A) (A) (A) (A) (A) (A) (A) (A) (A) (A)
                 (A) (A) (A) (A) (A) (A) (A) (A) (A) (A) (A) (A)
                 (A) (A) (A) (A) (A) (A) (A) (A) (A) (A) (A) (A)
                 (A) (A) (A) (A) (A) (A) (A) (A) (A) (A) (A) (A)
                 (A) (A) (A) (A) (A) (A) (A) (A) (A) (A) (A) (A)
                 (A) (A) (A) (A) (A) (A) (A) (A) (A) (A) (A) (A)
                 (A) (A) (A) (A) (A) (A) (A) (A) (A) (A) (A) (A)
                 (A) (A) (A) (A) (A) (A) (A) (A) (A) (A) (A) (A)
                 (A) (A) (A) (A) (A) (A) (A) (A) (A) (A) (A) (A)
                 (A) (A) (A) (A) (A) (A) (A) (A) (A) (A) (A) (A)
                 (A) (A) (A) (A) (A) (A) (A) (A) (A) (A) (A) (A)
                 (A) (A) (A) (A) (A) (A) (A) (A) (A) (A) (A) (A)
                 (A) (A) (A) (A) (A) (A) (A) (A) (A) (A) (A) (A)
                 (A) (A) (A) (A) (A) (A) (A) (A) (A) (A) (A) (A)
                 (A) (A) (A) (A) (A) (A) (A) (A) (A) (A) (A) (A)
                 (A) (A) (A) (A) (A) (A) (A) (A) (A) (A) (A) (A)
                 (A) (A) (A) (A) (A) (A) (A) (A) (A) (A) (A) (A)
                 (A) (A) (A) (A) (A) (A) (A) (A) (A) (A) (A) (A)
                 (A) (A) (A) (A) (A) (A) (A) (A) (A) (A) (A) (A)
                 (A) (A) (A) (A) (A) (A) (A) (A) (A) (A) (A) (A)
 The electronic state is 1-A.
 Alpha  occ. eigenvalues -- -101.68109-101.67936 -10.40718 -10.32345 -10.32153
 Alpha  occ. eigenvalues --  -10.31820 -10.30571 -10.29591 -10.29253 -10.29242
 Alpha  occ. eigenvalues --   -9.56678  -9.56512  -7.31329  -7.31154  -7.30443
 Alpha  occ. eigenvalues --   -7.30437  -7.30283  -7.30273  -1.03743  -0.93755
 Alpha  occ. eigenvalues --   -0.92141  -0.89981  -0.87300  -0.79304  -0.72259
 Alpha  occ. eigenvalues --   -0.69298  -0.66129  -0.62962  -0.59992  -0.58895
 Alpha  occ. eigenvalues --   -0.55180  -0.54598  -0.51159  -0.50133  -0.49026
 Alpha  occ. eigenvalues --   -0.48095  -0.47150  -0.44882  -0.44476  -0.43989
 Alpha  occ. eigenvalues --   -0.39652  -0.39193  -0.36374  -0.35186  -0.32489
 Alpha  occ. eigenvalues --   -0.32187
 Alpha virt. eigenvalues --    0.02165   0.04573   0.07970   0.10757   0.11991
 Alpha virt. eigenvalues --    0.12836   0.14293   0.14321   0.16296   0.16811
 Alpha virt. eigenvalues --    0.18267   0.18893   0.19602   0.20156   0.20761
 Alpha virt. eigenvalues --    0.21662   0.24115   0.24795   0.25620   0.26119
 Alpha virt. eigenvalues --    0.26883   0.27973   0.28798   0.29708   0.31122
 Alpha virt. eigenvalues --    0.32252   0.33225   0.34169   0.34847   0.35278
 Alpha virt. eigenvalues --    0.36340   0.37014   0.38397   0.38906   0.39362
 Alpha virt. eigenvalues --    0.40603   0.41008   0.42461   0.42731   0.43627
 Alpha virt. eigenvalues --    0.44738   0.45587   0.46139   0.46673   0.47661
 Alpha virt. eigenvalues --    0.47962   0.48596   0.49615   0.50502   0.51199
 Alpha virt. eigenvalues --    0.51788   0.52053   0.53079   0.53777   0.54052
 Alpha virt. eigenvalues --    0.54142   0.55870   0.56430   0.57329   0.57922
 Alpha virt. eigenvalues --    0.58619   0.59751   0.60670   0.63336   0.63890
 Alpha virt. eigenvalues --    0.64969   0.66646   0.68981   0.70141   0.70974
 Alpha virt. eigenvalues --    0.71871   0.73179   0.73748   0.75537   0.77229
 Alpha virt. eigenvalues --    0.77982   0.79026   0.80917   0.82751   0.84126
 Alpha virt. eigenvalues --    0.85827   0.87910   0.89664   0.92428   0.93002
 Alpha virt. eigenvalues --    0.94601   0.97044   0.97350   0.99105   1.00949
 Alpha virt. eigenvalues --    1.02336   1.02608   1.03918   1.04639   1.07276
 Alpha virt. eigenvalues --    1.08279   1.10508   1.11029   1.14630   1.15738
 Alpha virt. eigenvalues --    1.17789   1.19099   1.20299   1.22224   1.23627
 Alpha virt. eigenvalues --    1.25562   1.25924   1.27115   1.27949   1.28581
 Alpha virt. eigenvalues --    1.29613   1.32222   1.32754   1.36091   1.37619
 Alpha virt. eigenvalues --    1.39015   1.41559   1.42491   1.45889   1.49962
 Alpha virt. eigenvalues --    1.51050   1.53454   1.53727   1.58329   1.59109
 Alpha virt. eigenvalues --    1.60723   1.61649   1.63009   1.63398   1.64384
 Alpha virt. eigenvalues --    1.66336   1.67189   1.69179   1.69855   1.71949
 Alpha virt. eigenvalues --    1.73235   1.74493   1.75946   1.77295   1.80738
 Alpha virt. eigenvalues --    1.84077   1.86259   1.86738   1.88776   1.89875
 Alpha virt. eigenvalues --    1.90792   1.91155   1.91524   1.92735   1.93268
 Alpha virt. eigenvalues --    1.94238   1.96099   1.96583   1.97868   2.00996
 Alpha virt. eigenvalues --    2.01921   2.02533   2.03394   2.04569   2.05992
 Alpha virt. eigenvalues --    2.07757   2.10031   2.10589   2.11266   2.13267
 Alpha virt. eigenvalues --    2.15349   2.16248   2.17286   2.19197   2.19318
 Alpha virt. eigenvalues --    2.20320   2.20636   2.22756   2.23592   2.25367
 Alpha virt. eigenvalues --    2.26217   2.27137   2.27812   2.30247   2.31062
 Alpha virt. eigenvalues --    2.32160   2.32879   2.33862   2.36123   2.36655
 Alpha virt. eigenvalues --    2.37455   2.39215   2.39646   2.41542   2.43212
 Alpha virt. eigenvalues --    2.43901   2.44215   2.45232   2.48112   2.49417
 Alpha virt. eigenvalues --    2.50986   2.51882   2.54592   2.57696   2.58984
 Alpha virt. eigenvalues --    2.60030   2.61500   2.62816   2.63997   2.65479
 Alpha virt. eigenvalues --    2.67597   2.68754   2.70692   2.72654   2.73548
 Alpha virt. eigenvalues --    2.74453   2.74857   2.76035   2.78653   2.81993
 Alpha virt. eigenvalues --    2.85210   2.86117   2.87222   2.89015   2.90866
 Alpha virt. eigenvalues --    2.92108   2.93125   2.94202   2.97163   2.97505
 Alpha virt. eigenvalues --    2.98654   3.00922   3.03544   3.05536   3.07468
 Alpha virt. eigenvalues --    3.07747   3.10000   3.11360   3.13562   3.13911
 Alpha virt. eigenvalues --    3.16033   3.17073   3.19127   3.20085   3.22013
 Alpha virt. eigenvalues --    3.22554   3.22730   3.24691   3.27438   3.29368
 Alpha virt. eigenvalues --    3.31611   3.32872   3.33526   3.34892   3.36447
 Alpha virt. eigenvalues --    3.36851   3.39081   3.40602   3.42131   3.42243
 Alpha virt. eigenvalues --    3.43149   3.45154   3.46625   3.49628   3.53045
 Alpha virt. eigenvalues --    3.54205   3.55643   3.57072   3.58914   3.59521
 Alpha virt. eigenvalues --    3.61341   3.63432   3.65205   3.65520   3.68859
 Alpha virt. eigenvalues --    3.70031   3.74096   3.78086   3.80160   3.83069
 Alpha virt. eigenvalues --    3.83122   3.84049   3.88312   3.90705   3.93782
 Alpha virt. eigenvalues --    3.95903   4.01696   4.06647   4.08628   4.10937
 Alpha virt. eigenvalues --    4.13042   4.13653   4.15303   4.18658   4.21922
 Alpha virt. eigenvalues --    4.23168   4.24748   4.26242   4.30645   4.32033
 Alpha virt. eigenvalues --    4.32135   4.37214   4.39227   4.41383   4.44283
 Alpha virt. eigenvalues --    4.47070   4.49930   4.52994   4.55268   4.60717
 Alpha virt. eigenvalues --    4.62390   4.67773   4.75260   4.77747   4.79348
 Alpha virt. eigenvalues --    4.84135   4.89371   4.93020   4.95924   5.04850
 Alpha virt. eigenvalues --    5.08571   5.15392   5.21514   5.28278   5.34777
 Alpha virt. eigenvalues --   10.86550  10.87972  10.89068  10.94948  11.37423
 Alpha virt. eigenvalues --   11.43993  22.33913  22.38443  22.48826  22.57798
 Alpha virt. eigenvalues --   22.64178  22.77161  22.81286  23.01775  25.38348
 Alpha virt. eigenvalues --   25.84109
          Condensed to atoms (all electrons):
               1          2          3          4          5          6
     1  C    4.949215   0.070586  -0.007589  -0.000553   0.512160  -0.054048
     2  C    0.070586   5.395946   0.005285   0.162396  -0.029490  -0.036208
     3  C   -0.007589   0.005285   5.085400   0.054692  -0.048855   0.466003
     4  C   -0.000553   0.162396   0.054692   5.484555  -0.028049  -0.009775
     5  C    0.512160  -0.029490  -0.048855  -0.028049   4.996307   0.408624
     6  C   -0.054048  -0.036208   0.466003  -0.009775   0.408624   5.069432
     7  H   -0.035376   0.001167   0.007429   0.000297   0.432663  -0.049489
     8  H    0.418428  -0.006018  -0.000996   0.002159  -0.038026   0.007616
     9  H    0.004461  -0.014736   0.438088  -0.037272  -0.003253  -0.051026
    10  H    0.423011  -0.029757   0.009171  -0.019243  -0.037476  -0.007620
    11  H    0.002788  -0.016340  -0.032261   0.391676   0.003119  -0.005503
    12  H    0.005300   0.000659  -0.043646   0.000602  -0.043637   0.432521
    13  C   -0.005840   0.333925  -0.000340   0.277883  -0.005573   0.000270
    14  H   -0.027713   0.402729   0.001646  -0.016377  -0.005614   0.003472
    15  C    0.001491  -0.002811   0.262176  -0.005284   0.003602  -0.024330
    16  H    0.000128  -0.000140  -0.051334  -0.005469  -0.000162   0.010993
    17  H    0.000160   0.000732  -0.035205  -0.006169   0.000463  -0.008304
    18  H   -0.000104   0.000069  -0.040459   0.003712  -0.000638  -0.005618
    19  Cl   0.000852  -0.034010   0.000868  -0.032531  -0.001043  -0.000850
    20  Cl  -0.009576  -0.044733  -0.007508  -0.062864   0.007703   0.004260
               7          8          9         10         11         12
     1  C   -0.035376   0.418428   0.004461   0.423011   0.002788   0.005300
     2  C    0.001167  -0.006018  -0.014736  -0.029757  -0.016340   0.000659
     3  C    0.007429  -0.000996   0.438088   0.009171  -0.032261  -0.043646
     4  C    0.000297   0.002159  -0.037272  -0.019243   0.391676   0.000602
     5  C    0.432663  -0.038026  -0.003253  -0.037476   0.003119  -0.043637
     6  C   -0.049489   0.007616  -0.051026  -0.007620  -0.005503   0.432521
     7  H    0.515491  -0.005891  -0.000038   0.003300   0.000039  -0.005636
     8  H   -0.005891   0.504255   0.000072  -0.025131  -0.000086  -0.000110
     9  H   -0.000038   0.000072   0.561315   0.004802  -0.007388   0.003318
    10  H    0.003300  -0.025131   0.004802   0.541388   0.000180  -0.000138
    11  H    0.000039  -0.000086  -0.007388   0.000180   0.504977  -0.000266
    12  H   -0.005636  -0.000110   0.003318  -0.000138  -0.000266   0.517080
    13  C    0.000421  -0.000965   0.004107   0.005149  -0.012620   0.000648
    14  H   -0.000228   0.000068   0.000290  -0.005467  -0.002423   0.000040
    15  C   -0.000041  -0.000018  -0.032810   0.000627   0.006381  -0.000301
    16  H    0.000006  -0.000003  -0.009390   0.000023   0.003704   0.000117
    17  H   -0.000003   0.000000   0.005065  -0.000029   0.000385   0.000212
    18  H   -0.000020   0.000002   0.000580  -0.000011  -0.000397   0.000524
    19  Cl   0.000031   0.000039  -0.000288  -0.000246  -0.000487   0.000022
    20  Cl   0.002754   0.000075   0.000543   0.000536   0.000997   0.002076
              13         14         15         16         17         18
     1  C   -0.005840  -0.027713   0.001491   0.000128   0.000160  -0.000104
     2  C    0.333925   0.402729  -0.002811  -0.000140   0.000732   0.000069
     3  C   -0.000340   0.001646   0.262176  -0.051334  -0.035205  -0.040459
     4  C    0.277883  -0.016377  -0.005284  -0.005469  -0.006169   0.003712
     5  C   -0.005573  -0.005614   0.003602  -0.000162   0.000463  -0.000638
     6  C    0.000270   0.003472  -0.024330   0.010993  -0.008304  -0.005618
     7  H    0.000421  -0.000228  -0.000041   0.000006  -0.000003  -0.000020
     8  H   -0.000965   0.000068  -0.000018  -0.000003   0.000000   0.000002
     9  H    0.004107   0.000290  -0.032810  -0.009390   0.005065   0.000580
    10  H    0.005149  -0.005467   0.000627   0.000023  -0.000029  -0.000011
    11  H   -0.012620  -0.002423   0.006381   0.003704   0.000385  -0.000397
    12  H    0.000648   0.000040  -0.000301   0.000117   0.000212   0.000524
    13  C    4.648799  -0.015566   0.000150   0.000537  -0.001068  -0.000016
    14  H   -0.015566   0.491771  -0.000146  -0.000020  -0.000023   0.000007
    15  C    0.000150  -0.000146   4.914554   0.428234   0.415979   0.413180
    16  H    0.000537  -0.000020   0.428234   0.542690  -0.024189  -0.020366
    17  H   -0.001068  -0.000023   0.415979  -0.024189   0.522954  -0.022619
    18  H   -0.000016   0.000007   0.413180  -0.020366  -0.022619   0.530243
    19  Cl   0.313008  -0.000417  -0.000138   0.000002   0.000012   0.000002
    20  Cl   0.356001   0.000737  -0.002862   0.000074   0.002618  -0.000000
              19         20
     1  C    0.000852  -0.009576
     2  C   -0.034010  -0.044733
     3  C    0.000868  -0.007508
     4  C   -0.032531  -0.062864
     5  C   -0.001043   0.007703
     6  C   -0.000850   0.004260
     7  H    0.000031   0.002754
     8  H    0.000039   0.000075
     9  H   -0.000288   0.000543
    10  H   -0.000246   0.000536
    11  H   -0.000487   0.000997
    12  H    0.000022   0.002076
    13  C    0.313008   0.356001
    14  H   -0.000417   0.000737
    15  C   -0.000138  -0.002862
    16  H    0.000002   0.000074
    17  H    0.000012   0.002618
    18  H    0.000002  -0.000000
    19  Cl  16.978282  -0.082914
    20  Cl  -0.082914  16.949154
 Mulliken charges:
               1
     1  C   -0.247783
     2  C   -0.159251
     3  C   -0.062566
     4  C   -0.154385
     5  C   -0.122824
     6  C   -0.150423
     7  H    0.133125
     8  H    0.144527
     9  H    0.133558
    10  H    0.136931
    11  H    0.163526
    12  H    0.130613
    13  C    0.101092
    14  H    0.173234
    15  C   -0.377632
    16  H    0.124567
    17  H    0.149028
    18  H    0.141928
    19  Cl  -0.140193
    20  Cl  -0.117071
 Sum of Mulliken charges =  -0.00000
 Mulliken charges with hydrogens summed into heavy atoms:
               1
     1  C    0.033675
     2  C    0.013982
     3  C    0.070992
     4  C    0.009141
     5  C    0.010301
     6  C   -0.019810
    13  C    0.101092
    15  C    0.037890
    19  Cl  -0.140193
    20  Cl  -0.117071
 APT charges:
               1
     1  C   -0.832463
     2  C   -0.456207
     3  C   -0.193919
     4  C   -0.414258
     5  C   -0.419753
     6  C   -0.387935
     7  H    0.471609
     8  H    0.533529
     9  H    0.319097
    10  H    0.292131
    11  H    0.476536
    12  H    0.415985
    13  C   -0.509984
    14  H    0.589965
    15  C   -1.383114
    16  H    0.427754
    17  H    0.180300
    18  H    0.658971
    19  Cl   0.176458
    20  Cl   0.055299
 Sum of APT charges =  -0.00000
 APT charges with hydrogens summed into heavy atoms:
               1
     1  C   -0.006803
     2  C    0.133759
     3  C    0.125179
     4  C    0.062278
     5  C    0.051856
     6  C    0.028050
    13  C   -0.509984
    15  C   -0.116090
    19  Cl   0.176458
    20  Cl   0.055299
 Electronic spatial extent (au):  <R**2>=           2007.7985
 Charge=             -0.0000 electrons
 Dipole moment (field-independent basis, Debye):
    X=              3.1295    Y=              0.3649    Z=             -1.8107  Tot=              3.6340
 Quadrupole moment (field-independent basis, Debye-Ang):
   XX=            -80.3010   YY=            -69.1488   ZZ=            -70.6681
   XY=              3.2357   XZ=              1.3921   YZ=              0.9719
 Traceless Quadrupole moment (field-independent basis, Debye-Ang):
   XX=             -6.9284   YY=              4.2238   ZZ=              2.7045
   XY=              3.2357   XZ=              1.3921   YZ=              0.9719
 Octapole moment (field-independent basis, Debye-Ang**2):
  XXX=            -11.5658  YYY=             -1.0173  ZZZ=              1.8852  XYY=              0.1154
  XXY=              8.5170  XXZ=              4.7728  XZZ=              1.6242  YZZ=             -4.1828
  YYZ=             -2.1536  XYZ=             -3.1446
 Hexadecapole moment (field-independent basis, Debye-Ang**3):
 XXXX=          -1576.1102 YYYY=           -654.3127 ZZZZ=           -456.2022 XXXY=             29.1891
 XXXZ=              9.3284 YYYX=              4.8840 YYYZ=             -6.1004 ZZZX=              0.0418
 ZZZY=             -0.3210 XXYY=           -372.3403 XXZZ=           -330.8435 YYZZ=           -180.9433
 XXYZ=             -2.7554 YYXZ=              4.3230 ZZXY=              2.8585
 N-N= 6.953695231878D+02 E-N=-4.300416276484D+03  KE= 1.228242605043D+03
  Exact polarizability:   0.000   0.000   0.000   0.000   0.000   0.000
 Approx polarizability: 152.537  -5.007 148.500  13.611  -0.837 139.116
   1 Symmetry operations used in ECPInt.
 ECPInt:  NShTT=   11935 NPrTT=   37953 LenC2=   11504 LenP2D=   27895.
 LDataN:  DoStor=T MaxTD1= 8 Len=  415
 Calling FoFJK, ICntrl=    100147 FMM=F ISym2X=0 I1Cent= 0 IOpClX= 0 NMat=1 NMatS=1 NMatT=0.
 ***** Axes restored to original set *****
 -------------------------------------------------------------------
 Center     Atomic                   Forces (Hartrees/Bohr)
 Number     Number              X              Y              Z
 -------------------------------------------------------------------
      1        6           0.002278763   -0.003560803    0.004730598
      2        6           0.001649307    0.000569050    0.002268240
      3        6           0.003366210    0.003573420    0.005027328
      4        6           0.001858249    0.001473568    0.001499874
      5        6          -0.003033313   -0.001378729   -0.002216099
      6        6          -0.003213159    0.001524325   -0.003411604
      7        1           0.000332159   -0.000218791    0.000117071
      8        1          -0.000190479   -0.000343127   -0.000033187
      9        1          -0.004621136   -0.000028092    0.000845167
     10        1          -0.003197687    0.002280535   -0.000123047
     11        1           0.004332448   -0.000117131   -0.003634087
     12        1           0.000443334   -0.000022623    0.000053096
     13        6          -0.001328912   -0.000891884   -0.002693489
     14        1           0.001828294   -0.003762986   -0.001292703
     15        6          -0.000020448    0.000586793   -0.000939026
     16        1           0.000439155   -0.000014013    0.000073399
     17        1          -0.000344625    0.000278896    0.000317578
     18        1          -0.000174904   -0.000033161   -0.000478722
     19       17           0.000070469   -0.000031607    0.000355055
     20       17          -0.000473725    0.000116359   -0.000465442
 -------------------------------------------------------------------
 Cartesian Forces:  Max     0.005027328 RMS     0.002031325
 FormGI is forming the generalized inverse of G from B-inverse, IUseBI=4.

 GradGradGradGradGradGradGradGradGradGradGradGradGradGradGradGradGradGrad
 Berny optimization.
 Internal  Forces:  Max     0.003520423 RMS     0.000968459
 Search for a saddle point.
 Step number   1 out of a maximum of   60
 All quantities printed in internal units (Hartrees-Bohrs-Radians)
 Swapping is turned off.
 Second derivative matrix not updated -- analytic derivatives used.
 ITU=  0
     Eigenvalues ---   -0.03065   0.00016   0.00242   0.00334   0.00809
     Eigenvalues ---    0.01189   0.01318   0.01421   0.01545   0.01660
     Eigenvalues ---    0.01820   0.01856   0.01914   0.02112   0.02453
     Eigenvalues ---    0.02592   0.02866   0.03721   0.04002   0.04418
     Eigenvalues ---    0.04514   0.04634   0.05719   0.06191   0.07119
     Eigenvalues ---    0.07917   0.09079   0.09687   0.10442   0.12163
     Eigenvalues ---    0.12506   0.12560   0.14458   0.15236   0.16143
     Eigenvalues ---    0.16742   0.17092   0.21198   0.29056   0.30101
     Eigenvalues ---    0.30970   0.31732   0.32866   0.33822   0.34215
     Eigenvalues ---    0.34556   0.34882   0.35923   0.36211   0.36399
     Eigenvalues ---    0.37471   0.42004   0.46871   0.47620
 Eigenvectors required to have negative eigenvalues:
                          R1        R9        D11       D12       D36
   1                    0.54970   0.44628  -0.25382  -0.19556   0.17971
                          R13       D15       R6        D19       D37
   1                    0.17912  -0.14000   0.13941   0.13608   0.13134
 RFO step:  Lambda0=1.197398516D-05 Lambda=-2.93993367D-03.
 Linear search not attempted -- option 19 set.
 Maximum step size (   0.030) exceeded in Quadratic search.
    -- Step size scaled by   0.107
 Iteration  1 RMS(Cart)=  0.00416939 RMS(Int)=  0.00001741
 Iteration  2 RMS(Cart)=  0.00001684 RMS(Int)=  0.00000437
 Iteration  3 RMS(Cart)=  0.00000000 RMS(Int)=  0.00000437
 Variable       Old X    -DE/DX   Delta X   Delta X   Delta X     New X
                                 (Linear)    (Quad)   (Total)
    R1        4.21238   0.00088   0.00000   0.00432   0.00432   4.21670
    R2        2.58714  -0.00266   0.00000  -0.00091  -0.00091   2.58624
    R3        2.04618  -0.00037   0.00000  -0.00008  -0.00008   2.04610
    R4        2.04312  -0.00044   0.00000   0.00004   0.00004   2.04316
    R5        2.56310  -0.00314   0.00000  -0.00089  -0.00089   2.56221
    R6        4.27688   0.00170   0.00000   0.01085   0.01085   4.28773
    R7        2.74919  -0.00177   0.00000  -0.00036  -0.00036   2.74883
    R8        2.03307  -0.00049   0.00000  -0.00001  -0.00001   2.03306
    R9        4.18123   0.00217   0.00000   0.01265   0.01265   4.19387
   R10        2.59268  -0.00267   0.00000  -0.00124  -0.00124   2.59144
   R11        2.04616  -0.00040   0.00000   0.00004   0.00003   2.04619
   R12        2.84010  -0.00109   0.00000  -0.00061  -0.00061   2.83949
   R13        4.23722   0.00124   0.00000   0.01229   0.01228   4.24950
   R14        2.03094  -0.00042   0.00000   0.00024   0.00024   2.03118
   R15        2.74761  -0.00163   0.00000  -0.00077  -0.00077   2.74684
   R16        2.65818  -0.00352   0.00000  -0.00003  -0.00003   2.65815
   R17        2.04647  -0.00004   0.00000   0.00006   0.00006   2.04653
   R18        2.04918  -0.00000   0.00000   0.00009   0.00009   2.04926
   R19        4.37431   0.00222   0.00000   0.01667   0.01669   4.39100
   R20        3.39318   0.00003   0.00000  -0.00019  -0.00019   3.39300
   R21        3.37717  -0.00035   0.00000  -0.00017  -0.00017   3.37700
   R22        2.06026   0.00003   0.00000   0.00000   0.00000   2.06026
   R23        2.06126  -0.00002   0.00000  -0.00005  -0.00005   2.06121
   R24        2.06435   0.00002   0.00000   0.00013   0.00013   2.06448
    A1        1.76482   0.00221   0.00000   0.00230   0.00230   1.76711
    A2        1.85319  -0.00094   0.00000  -0.00163  -0.00162   1.85157
    A3        2.09760  -0.00023   0.00000  -0.00029  -0.00030   2.09731
    A4        2.11913   0.00031   0.00000  -0.00038  -0.00038   2.11874
    A5        2.02259  -0.00068   0.00000  -0.00068  -0.00069   2.02190
    A6        1.90947  -0.00101   0.00000   0.00014   0.00014   1.90961
    A7        2.14153  -0.00072   0.00000  -0.00131  -0.00132   2.14022
    A8        1.53124   0.00170   0.00000   0.00457   0.00458   1.53582
    A9        1.72893  -0.00057   0.00000   0.00062   0.00063   1.72955
   A10        2.50200  -0.00112   0.00000  -0.00517  -0.00518   2.49682
   A11        2.46875  -0.00065   0.00000  -0.00160  -0.00160   2.46715
   A12        1.41356   0.00097   0.00000   0.00266   0.00268   1.41624
   A13        2.35276  -0.00013   0.00000  -0.00019  -0.00020   2.35255
   A14        1.75296   0.00175   0.00000   0.00140   0.00139   1.75436
   A15        1.85741  -0.00077   0.00000  -0.00051  -0.00050   1.85690
   A16        2.07423   0.00010   0.00000  -0.00050  -0.00049   2.07374
   A17        2.12809   0.00008   0.00000   0.00098   0.00098   2.12908
   A18        2.03825  -0.00044   0.00000  -0.00107  -0.00107   2.03717
   A19        1.94364  -0.00050   0.00000  -0.00117  -0.00117   1.94247
   A20        1.73357  -0.00022   0.00000   0.00042   0.00042   1.73400
   A21        2.50186  -0.00110   0.00000  -0.00464  -0.00464   2.49723
   A22        1.49069   0.00121   0.00000   0.00545   0.00546   1.49615
   A23        2.16001  -0.00046   0.00000  -0.00264  -0.00265   2.15736
   A24        2.47380  -0.00046   0.00000  -0.00257  -0.00257   2.47122
   A25        2.36118  -0.00004   0.00000   0.00004   0.00004   2.36122
   A26        2.14591  -0.00037   0.00000   0.00060   0.00061   2.14652
   A27        2.06805   0.00028   0.00000  -0.00023  -0.00023   2.06782
   A28        2.05237  -0.00005   0.00000  -0.00080  -0.00081   2.05157
   A29        2.15080  -0.00036   0.00000   0.00042   0.00042   2.15121
   A30        2.06413   0.00019   0.00000  -0.00019  -0.00019   2.06394
   A31        2.05378   0.00004   0.00000  -0.00072  -0.00072   2.05306
   A32        1.39827   0.00111   0.00000   0.00343   0.00343   1.40170
   A33        2.05436   0.00007   0.00000   0.00036   0.00036   2.05472
   A34        2.18358   0.00021   0.00000  -0.00054  -0.00054   2.18304
   A35        2.05829   0.00014   0.00000   0.00027   0.00027   2.05856
   A36        2.17651   0.00015   0.00000  -0.00018  -0.00018   2.17633
   A37        1.88241  -0.00010   0.00000   0.00012   0.00013   1.88253
   A38        1.94845   0.00000   0.00000  -0.00015  -0.00015   1.94830
   A39        1.93704  -0.00010   0.00000   0.00010   0.00010   1.93714
   A40        1.93137  -0.00016   0.00000  -0.00005  -0.00005   1.93133
   A41        1.88856   0.00010   0.00000   0.00009   0.00009   1.88865
   A42        1.87477   0.00007   0.00000  -0.00017  -0.00017   1.87461
   A43        1.88102   0.00010   0.00000   0.00018   0.00018   1.88120
    D1        0.83948  -0.00045   0.00000  -0.00059  -0.00059   0.83889
    D2       -0.36096  -0.00023   0.00000  -0.00042  -0.00042  -0.36138
    D3       -2.88042  -0.00123   0.00000  -0.00385  -0.00384  -2.88427
    D4        3.04200  -0.00002   0.00000  -0.00051  -0.00051   3.04149
    D5        1.84156   0.00019   0.00000  -0.00034  -0.00034   1.84122
    D6       -0.67791  -0.00080   0.00000  -0.00377  -0.00377  -0.68167
    D7       -0.98625   0.00027   0.00000   0.00004   0.00005  -0.98621
    D8        1.95423  -0.00053   0.00000  -0.00260  -0.00259   1.95164
    D9       -3.01579  -0.00008   0.00000   0.00053   0.00053  -3.01525
   D10       -0.07530  -0.00088   0.00000  -0.00211  -0.00211  -0.07741
   D11        0.45256   0.00223   0.00000   0.00555   0.00556   0.45812
   D12       -2.89014   0.00143   0.00000   0.00292   0.00292  -2.88722
   D13        0.00753   0.00007   0.00000  -0.00097  -0.00097   0.00656
   D14        0.46891  -0.00018   0.00000  -0.00195  -0.00195   0.46696
   D15        1.96997   0.00053   0.00000   0.00319   0.00318   1.97314
   D16       -0.45887   0.00028   0.00000  -0.00018  -0.00018  -0.45905
   D17        0.00250   0.00003   0.00000  -0.00116  -0.00116   0.00135
   D18        1.50356   0.00075   0.00000   0.00398   0.00397   1.50753
   D19       -1.97834  -0.00048   0.00000  -0.00501  -0.00500  -1.98334
   D20       -1.51697  -0.00073   0.00000  -0.00599  -0.00598  -1.52294
   D21       -0.01591  -0.00002   0.00000  -0.00085  -0.00085  -0.01676
   D22       -2.74838  -0.00082   0.00000   0.00083   0.00083  -2.74755
   D23       -0.26262  -0.00052   0.00000   0.00081   0.00080  -0.26182
   D24        3.04089   0.00009   0.00000   0.00291   0.00291   3.04380
   D25       -0.75654   0.00038   0.00000   0.00288   0.00289  -0.75365
   D26       -0.56940   0.00125   0.00000   0.00771   0.00771  -0.56170
   D27        1.91635   0.00155   0.00000   0.00768   0.00768   1.92403
   D28       -0.85085   0.00041   0.00000   0.00252   0.00252  -0.84833
   D29        2.87737   0.00121   0.00000   0.00523   0.00523   2.88259
   D30        0.37284   0.00038   0.00000   0.00166   0.00166   0.37451
   D31       -3.08398  -0.00023   0.00000   0.00091   0.00091  -3.08307
   D32        0.64424   0.00056   0.00000   0.00362   0.00361   0.64786
   D33       -1.86028  -0.00026   0.00000   0.00005   0.00005  -1.86023
   D34        0.99718  -0.00078   0.00000  -0.00255  -0.00256   0.99462
   D35       -1.95791   0.00005   0.00000   0.00062   0.00062  -1.95730
   D36       -0.42244  -0.00138   0.00000  -0.00389  -0.00389  -0.42634
   D37        2.90565  -0.00055   0.00000  -0.00072  -0.00071   2.90494
   D38        3.03867  -0.00034   0.00000  -0.00158  -0.00158   3.03708
   D39        0.08358   0.00049   0.00000   0.00159   0.00159   0.08517
   D40        2.13704   0.00131   0.00000  -0.00050  -0.00051   2.13653
   D41       -1.30779   0.00041   0.00000  -0.00233  -0.00233  -1.31012
   D42       -1.06242   0.00114   0.00000   0.01147   0.01148  -1.05094
   D43        1.04608   0.00119   0.00000   0.01156   0.01156   1.05763
   D44        3.13361   0.00116   0.00000   0.01181   0.01182  -3.13776
   D45       -3.05151  -0.00060   0.00000   0.00945   0.00945  -3.04206
   D46       -0.94302  -0.00054   0.00000   0.00953   0.00953  -0.93349
   D47        1.14452  -0.00058   0.00000   0.00979   0.00979   1.15431
   D48        0.40338   0.00033   0.00000   0.01163   0.01162   0.41500
   D49        2.51187   0.00039   0.00000   0.01171   0.01171   2.52358
   D50       -1.68377   0.00035   0.00000   0.01197   0.01196  -1.67181
   D51        1.72393   0.00152   0.00000   0.00691   0.00691   1.73084
   D52        2.71955   0.00048   0.00000  -0.00004  -0.00005   2.71950
   D53        0.23910   0.00017   0.00000  -0.00048  -0.00048   0.23862
   D54       -3.03901  -0.00030   0.00000  -0.00417  -0.00416  -3.04317
   D55        0.76373  -0.00061   0.00000  -0.00460  -0.00460   0.75913
   D56        0.58032  -0.00116   0.00000  -0.00684  -0.00684   0.57349
   D57       -1.90013  -0.00147   0.00000  -0.00727  -0.00727  -1.90740
   D58       -0.01071   0.00002   0.00000   0.00045   0.00045  -0.01025
   D59        2.94542  -0.00079   0.00000  -0.00265  -0.00265   2.94276
   D60       -2.95289   0.00078   0.00000   0.00301   0.00301  -2.94987
   D61        0.00324  -0.00003   0.00000  -0.00010  -0.00010   0.00314
         Item               Value     Threshold  Converged?
 Maximum Force            0.003520     0.000450     NO 
 RMS     Force            0.000968     0.000300     NO 
 Maximum Displacement     0.016113     0.001800     NO 
 RMS     Displacement     0.004171     0.001200     NO 
 Predicted change in Energy=-2.990363D-04
 GradGradGradGradGradGradGradGradGradGradGradGradGradGradGradGradGradGrad

                          Input orientation:                          
 ---------------------------------------------------------------------
 Center     Atomic      Atomic             Coordinates (Angstroms)
 Number     Number       Type             X           Y           Z
 ---------------------------------------------------------------------
      1          6           0       -1.371831    1.857937   -1.101972
      2          6           0        0.402886    0.518750   -1.291777
      3          6           0       -2.052241   -0.831249   -0.243359
      4          6           0        0.070923   -0.730196   -0.881535
      5          6           0       -1.793231    1.564493    0.166617
      6          6           0       -2.117301    0.260753    0.583588
      7          1           0       -1.699800    2.326067    0.930891
      8          1           0       -1.022953    2.854295   -1.342597
      9          1           0       -2.135594   -0.681942   -1.312568
     10          1           0       -1.647452    1.238772   -1.944378
     11          1           0       -0.068193   -1.739034   -1.225337
     12          1           0       -2.258074    0.092783    1.645635
     13          6           0        1.101872   -0.025216   -0.137899
     14          1           0        0.695221    1.091123   -2.154553
     15          6           0       -2.276724   -2.227906    0.263343
     16          1           0       -2.087823   -2.971601   -0.511162
     17          1           0       -1.625527   -2.445426    1.110898
     18          1           0       -3.309794   -2.356273    0.594695
     19         17           0        2.805688   -0.545353   -0.362133
     20         17           0        0.924198    0.561114    1.540832
 ---------------------------------------------------------------------
                    Distance matrix (angstroms):
                    1          2          3          4          5
     1  C    0.000000
     2  C    2.231382   0.000000
     3  C    2.903772   2.991542   0.000000
     4  C    2.971289   1.355862   2.219303   0.000000
     5  C    1.368578   2.836093   2.444329   3.136764   0.000000
     6  C    2.438817   3.151967   1.371329   2.813696   1.406635
     7  H    2.111691   3.553581   3.386993   3.970024   1.082977
     8  H    1.082750   2.736855   3.981331   3.775940   2.129471
     9  H    2.660577   2.808198   1.082796   2.248741   2.711396
    10  H    1.081194   2.268967   2.709670   2.821220   2.140945
    11  H    3.827910   2.307362   2.392656   1.074853   3.978264
    12  H    3.383864   3.986294   2.112936   3.533851   2.137639
    13  C    3.254982   1.454618   3.257183   1.453564   3.316855
    14  H    2.443079   1.075851   3.859628   2.308143   3.435740
    15  C    4.401935   4.140389   1.502595   3.010868   3.824318
    16  H    4.917940   4.358387   2.157334   3.133889   4.595902
    17  H    4.845625   4.321301   2.149805   3.128857   4.123013
    18  H    4.939023   5.060486   2.146968   4.031455   4.225591
    19  Cl   4.875943   2.787474   4.867783   2.789782   5.087346
    20  Cl   3.733351   2.880492   3.739144   2.874617   3.206190
                    6          7          8          9         10
     6  C    0.000000
     7  H    2.135520   0.000000
     8  H    3.410901   2.430205   0.000000
     9  H    2.117644   3.777716   3.707270   0.000000
    10  H    2.750979   3.074430   1.833590   2.080051   0.000000
    11  H    3.386769   4.882265   4.692973   2.323619   3.446508
    12  H    1.084424   2.410411   4.252176   3.060418   3.817635
    13  C    3.311404   3.810540   3.775946   3.506041   3.524177
    14  H    4.012133   4.096484   2.592330   3.444737   2.356712
    15  C    2.514239   4.638656   5.475377   2.212107   4.157869
    16  H    3.412838   5.504122   5.980493   2.426329   4.469371
    17  H    2.800590   4.775464   5.871097   3.040268   4.786283
    18  H    2.875933   4.962803   6.011053   2.796387   4.704745
    19  Cl   5.077402   5.496943   5.213196   5.033712   5.051442
    20  Cl   3.202694   3.220629   4.167043   4.364562   4.383982
                   11         12         13         14         15
    11  H    0.000000
    12  H    4.048903   0.000000
    13  C    2.342807   3.805805   0.000000
    14  H    3.075066   4.915288   2.340614   0.000000
    15  C    2.707910   2.701236   4.053116   5.068988   0.000000
    16  H    2.471472   3.751161   4.358287   5.191512   1.090241
    17  H    2.895216   2.669937   3.854298   5.343802   1.090744
    18  H    3.768485   2.865042   5.043146   5.956765   1.092477
    19  Cl   3.229425   5.484527   1.795497   3.216348   5.390094
    20  Cl   3.731918   3.218256   1.787034   3.740215   4.433566
                   16         17         18         19         20
    16  H    0.000000
    17  H    1.766821   0.000000
    18  H    1.759193   1.763851   0.000000
    19  Cl   5.464004   5.041405   6.449346   0.000000
    20  Cl   5.075729   3.965503   5.228098   2.895782   0.000000
 Stoichiometry    C8H10Cl2
 Framework group  C1[X(C8H10Cl2)]
 Deg. of freedom    54
 Full point group                 C1      NOp   1
 Largest Abelian subgroup         C1      NOp   1
 Largest concise Abelian subgroup C1      NOp   1
                         Standard orientation:                         
 ---------------------------------------------------------------------
 Center     Atomic      Atomic             Coordinates (Angstroms)
 Number     Number       Type             X           Y           Z
 ---------------------------------------------------------------------
      1          6           0        1.370944   -1.859147   -1.101169
      2          6           0       -0.403990   -0.520171   -1.290429
      3          6           0        2.052332    0.830989   -0.246317
      4          6           0       -0.071560    0.729228   -0.881952
      5          6           0        1.793794   -1.564297    0.166611
      6          6           0        2.118339   -0.260097    0.581765
      7          1           0        1.701238   -2.325024    0.931835
      8          1           0        1.021793   -2.855772   -1.340291
      9          1           0        2.134463    0.680496   -1.315454
     10          1           0        1.645601   -1.240917   -1.944576
     11          1           0        0.067161    1.737685   -1.227031
     12          1           0        2.260326   -0.090950    1.643463
     13          6           0       -1.101657    0.025074   -0.136357
     14          1           0       -0.697311   -1.093501   -2.152236
     15          6           0        2.277393    2.228206    0.258580
     16          1           0        2.087606    2.971042   -0.516533
     17          1           0        1.627165    2.446665    1.106637
     18          1           0        3.310841    2.356940    0.588608
     19         17           0       -2.805729    0.544962   -0.359219
     20         17           0       -0.922063   -0.559395    1.542819
 ---------------------------------------------------------------------
 Rotational constants (GHZ):           1.3766794           0.6842095           0.6363263
 Standard basis: def2TZVP (5D, 7F)
 There are   432 symmetry adapted cartesian basis functions of A   symmetry.
 There are   382 symmetry adapted basis functions of A   symmetry.
   382 basis functions,   626 primitive gaussians,   432 cartesian basis functions
    46 alpha electrons       46 beta electrons
       nuclear repulsion energy       695.1942131823 Hartrees.
 NAtoms=   20 NActive=   20 NUniq=   20 SFac= 1.00D+00 NAtFMM=   60 NAOKFM=F Big=F
 Integral buffers will be    131072 words long.
 Raffenetti 2 integral format.
 Two-electron integral symmetry is turned on.
 Nuclear repulsion after empirical dispersion term =      695.1796395747 Hartrees.
 One-electron integrals computed using PRISM.
   1 Symmetry operations used in ECPInt.
 ECPInt:  NShTT=   11935 NPrTT=   37953 LenC2=   11504 LenP2D=   27892.
 LDataN:  DoStor=T MaxTD1= 6 Len=  172
 NBasis=   382 RedAO= T EigKep=  5.51D-05  NBF=   382
 NBsUse=   382 1.00D-06 EigRej= -1.00D+00 NBFU=   382
 Initial guess from the checkpoint file:  "/local/Gau-45150.chk"
 B after Tr=     0.000000    0.000000   -0.000000
         Rot=    1.000000    0.000615   -0.000491   -0.000067 Ang=   0.09 deg.
 Requested convergence on RMS density matrix=1.00D-08 within 128 cycles.
 Requested convergence on MAX density matrix=1.00D-06.
 Requested convergence on             energy=1.00D-06.
 No special actions if energy rises.
 SCF Done:  E(RwB97XD) =  -1231.13094336     A.U. after   10 cycles
            NFock= 10  Conv=0.48D-08     -V/T= 2.0023
   1 Symmetry operations used in ECPInt.
 ECPInt:  NShTT=   11935 NPrTT=   37953 LenC2=   11504 LenP2D=   27892.
 LDataN:  DoStor=T MaxTD1= 7 Len=  274
 Calling FoFJK, ICntrl=      2127 FMM=F ISym2X=0 I1Cent= 0 IOpClX= 0 NMat=1 NMatS=1 NMatT=0.
 ***** Axes restored to original set *****
 -------------------------------------------------------------------
 Center     Atomic                   Forces (Hartrees/Bohr)
 Number     Number              X              Y              Z
 -------------------------------------------------------------------
      1        6           0.002045168   -0.003206131    0.004237114
      2        6           0.001480818    0.000556065    0.002040644
      3        6           0.003030628    0.003199616    0.004537005
      4        6           0.001696781    0.001271570    0.001339791
      5        6          -0.002729732   -0.001222222   -0.001986861
      6        6          -0.002861805    0.001365907   -0.003057301
      7        1           0.000303485   -0.000198051    0.000105600
      8        1          -0.000170280   -0.000305717   -0.000025804
      9        1          -0.004272829   -0.000010757    0.000776389
     10        1          -0.002890323    0.002070345   -0.000110943
     11        1           0.003944512   -0.000083126   -0.003303162
     12        1           0.000402378   -0.000021064    0.000047484
     13        6          -0.001166813   -0.000815150   -0.002427629
     14        1           0.001653057   -0.003417697   -0.001165710
     15        6          -0.000022793    0.000526583   -0.000836730
     16        1           0.000439679   -0.000013500    0.000083347
     17        1          -0.000346183    0.000265135    0.000313050
     18        1          -0.000165152   -0.000045841   -0.000476274
     19       17           0.000065474   -0.000024759    0.000328784
     20       17          -0.000436073    0.000108795   -0.000418794
 -------------------------------------------------------------------
 Cartesian Forces:  Max     0.004537005 RMS     0.001834843

 GradGradGradGradGradGradGradGradGradGradGradGradGradGradGradGradGradGrad
 Berny optimization.
 FormGI is forming the generalized inverse of G from B-inverse, IUseBI=4.
 Internal  Forces:  Max     0.003148242 RMS     0.000873039
 Search for a saddle point.
 Step number   2 out of a maximum of   60
 All quantities printed in internal units (Hartrees-Bohrs-Radians)
 Swapping is turned off.
 Update second derivatives using D2CorX and points    1    2
 ITU=  0  0
     Eigenvalues ---   -0.03066   0.00017   0.00242   0.00334   0.00808
     Eigenvalues ---    0.01188   0.01318   0.01420   0.01545   0.01660
     Eigenvalues ---    0.01820   0.01856   0.01914   0.02111   0.02452
     Eigenvalues ---    0.02592   0.02866   0.03721   0.04002   0.04418
     Eigenvalues ---    0.04514   0.04633   0.05719   0.06190   0.07119
     Eigenvalues ---    0.07917   0.09079   0.09687   0.10441   0.12163
     Eigenvalues ---    0.12506   0.12560   0.14458   0.15236   0.16143
     Eigenvalues ---    0.16742   0.17092   0.21198   0.29056   0.30101
     Eigenvalues ---    0.30969   0.31732   0.32866   0.33822   0.34215
     Eigenvalues ---    0.34556   0.34882   0.35923   0.36211   0.36399
     Eigenvalues ---    0.37471   0.42004   0.46871   0.47620
 Eigenvectors required to have negative eigenvalues:
                          R1        R9        D11       D12       R13
   1                    0.54969   0.44668  -0.25373  -0.19551   0.17969
                          D36       R6        D15       D19       D37
   1                    0.17968   0.13974  -0.13932   0.13542   0.13136
 RFO step:  Lambda0=9.293455708D-06 Lambda=-2.57159434D-03.
 Linear search not attempted -- option 19 set.
 Maximum step size (   0.030) exceeded in Quadratic search.
    -- Step size scaled by   0.112
 Iteration  1 RMS(Cart)=  0.00460981 RMS(Int)=  0.00002292
 Iteration  2 RMS(Cart)=  0.00002283 RMS(Int)=  0.00000429
 Iteration  3 RMS(Cart)=  0.00000000 RMS(Int)=  0.00000429
 Variable       Old X    -DE/DX   Delta X   Delta X   Delta X     New X
                                 (Linear)    (Quad)   (Total)
    R1        4.21670   0.00080   0.00000   0.00392   0.00392   4.22063
    R2        2.58624  -0.00238   0.00000  -0.00084  -0.00084   2.58540
    R3        2.04610  -0.00033   0.00000  -0.00007  -0.00007   2.04603
    R4        2.04316  -0.00039   0.00000   0.00004   0.00005   2.04321
    R5        2.56221  -0.00281   0.00000  -0.00082  -0.00082   2.56139
    R6        4.28773   0.00155   0.00000   0.01054   0.01053   4.29826
    R7        2.74883  -0.00158   0.00000  -0.00032  -0.00032   2.74851
    R8        2.03306  -0.00044   0.00000   0.00000   0.00000   2.03306
    R9        4.19387   0.00198   0.00000   0.01260   0.01260   4.20647
   R10        2.59144  -0.00239   0.00000  -0.00118  -0.00118   2.59026
   R11        2.04619  -0.00035   0.00000   0.00005   0.00004   2.04623
   R12        2.83949  -0.00098   0.00000  -0.00063  -0.00063   2.83886
   R13        4.24950   0.00114   0.00000   0.01244   0.01243   4.26193
   R14        2.03118  -0.00037   0.00000   0.00023   0.00023   2.03141
   R15        2.74684  -0.00146   0.00000  -0.00073  -0.00074   2.74610
   R16        2.65815  -0.00315   0.00000  -0.00003  -0.00003   2.65813
   R17        2.04653  -0.00004   0.00000   0.00006   0.00006   2.04659
   R18        2.04926  -0.00000   0.00000   0.00008   0.00008   2.04934
   R19        4.39100   0.00204   0.00000   0.01691   0.01692   4.40793
   R20        3.39300   0.00003   0.00000  -0.00020  -0.00020   3.39280
   R21        3.37700  -0.00031   0.00000  -0.00014  -0.00014   3.37686
   R22        2.06026   0.00003   0.00000   0.00001   0.00001   2.06027
   R23        2.06121  -0.00002   0.00000  -0.00006  -0.00006   2.06115
   R24        2.06448   0.00002   0.00000   0.00014   0.00014   2.06463
    A1        1.76711   0.00199   0.00000   0.00220   0.00220   1.76931
    A2        1.85157  -0.00085   0.00000  -0.00162  -0.00162   1.84995
    A3        2.09731  -0.00020   0.00000  -0.00031  -0.00031   2.09700
    A4        2.11874   0.00027   0.00000  -0.00038  -0.00039   2.11836
    A5        2.02190  -0.00062   0.00000  -0.00066  -0.00066   2.02124
    A6        1.90961  -0.00090   0.00000   0.00023   0.00023   1.90984
    A7        2.14022  -0.00065   0.00000  -0.00122  -0.00123   2.13899
    A8        1.53582   0.00153   0.00000   0.00452   0.00453   1.54035
    A9        1.72955  -0.00051   0.00000   0.00067   0.00068   1.73023
   A10        2.49682  -0.00102   0.00000  -0.00514  -0.00514   2.49168
   A11        2.46715  -0.00059   0.00000  -0.00150  -0.00150   2.46564
   A12        1.41624   0.00088   0.00000   0.00267   0.00268   1.41892
   A13        2.35255  -0.00012   0.00000  -0.00029  -0.00031   2.35225
   A14        1.75436   0.00157   0.00000   0.00122   0.00122   1.75558
   A15        1.85690  -0.00069   0.00000  -0.00037  -0.00037   1.85654
   A16        2.07374   0.00009   0.00000  -0.00047  -0.00047   2.07327
   A17        2.12908   0.00007   0.00000   0.00095   0.00095   2.13003
   A18        2.03717  -0.00040   0.00000  -0.00107  -0.00108   2.03609
   A19        1.94247  -0.00045   0.00000  -0.00122  -0.00122   1.94125
   A20        1.73400  -0.00019   0.00000   0.00035   0.00035   1.73435
   A21        2.49723  -0.00100   0.00000  -0.00457  -0.00457   2.49266
   A22        1.49615   0.00110   0.00000   0.00544   0.00544   1.50159
   A23        2.15736  -0.00042   0.00000  -0.00259  -0.00259   2.15477
   A24        2.47122  -0.00042   0.00000  -0.00256  -0.00256   2.46866
   A25        2.36122  -0.00003   0.00000  -0.00000  -0.00001   2.36121
   A26        2.14652  -0.00033   0.00000   0.00058   0.00059   2.14711
   A27        2.06782   0.00025   0.00000  -0.00023  -0.00024   2.06758
   A28        2.05157  -0.00004   0.00000  -0.00078  -0.00079   2.05078
   A29        2.15121  -0.00032   0.00000   0.00043   0.00043   2.15164
   A30        2.06394   0.00017   0.00000  -0.00020  -0.00020   2.06374
   A31        2.05306   0.00003   0.00000  -0.00071  -0.00071   2.05235
   A32        1.40170   0.00100   0.00000   0.00328   0.00327   1.40497
   A33        2.05472   0.00007   0.00000   0.00037   0.00037   2.05509
   A34        2.18304   0.00019   0.00000  -0.00055  -0.00055   2.18248
   A35        2.05856   0.00013   0.00000   0.00028   0.00027   2.05883
   A36        2.17633   0.00013   0.00000  -0.00017  -0.00017   2.17616
   A37        1.88253  -0.00009   0.00000   0.00011   0.00012   1.88265
   A38        1.94830   0.00000   0.00000  -0.00016  -0.00016   1.94814
   A39        1.93714  -0.00009   0.00000   0.00012   0.00012   1.93726
   A40        1.93133  -0.00014   0.00000  -0.00008  -0.00008   1.93125
   A41        1.88865   0.00009   0.00000   0.00011   0.00011   1.88876
   A42        1.87461   0.00006   0.00000  -0.00022  -0.00022   1.87439
   A43        1.88120   0.00009   0.00000   0.00023   0.00023   1.88143
    D1        0.83889  -0.00040   0.00000  -0.00052  -0.00052   0.83837
    D2       -0.36138  -0.00021   0.00000  -0.00039  -0.00039  -0.36177
    D3       -2.88427  -0.00111   0.00000  -0.00371  -0.00370  -2.88797
    D4        3.04149  -0.00002   0.00000  -0.00050  -0.00051   3.04098
    D5        1.84122   0.00017   0.00000  -0.00038  -0.00038   1.84084
    D6       -0.68167  -0.00073   0.00000  -0.00370  -0.00369  -0.68536
    D7       -0.98621   0.00024   0.00000  -0.00003  -0.00003  -0.98623
    D8        1.95164  -0.00048   0.00000  -0.00264  -0.00264   1.94900
    D9       -3.01525  -0.00007   0.00000   0.00053   0.00053  -3.01472
   D10       -0.07741  -0.00079   0.00000  -0.00207  -0.00207  -0.07948
   D11        0.45812   0.00201   0.00000   0.00544   0.00545   0.46356
   D12       -2.88722   0.00129   0.00000   0.00284   0.00284  -2.88439
   D13        0.00656   0.00006   0.00000  -0.00095  -0.00095   0.00561
   D14        0.46696  -0.00016   0.00000  -0.00194  -0.00194   0.46502
   D15        1.97314   0.00049   0.00000   0.00313   0.00311   1.97626
   D16       -0.45905   0.00025   0.00000  -0.00020  -0.00020  -0.45925
   D17        0.00135   0.00003   0.00000  -0.00119  -0.00119   0.00016
   D18        1.50753   0.00068   0.00000   0.00388   0.00386   1.51139
   D19       -1.98334  -0.00044   0.00000  -0.00503  -0.00502  -1.98836
   D20       -1.52294  -0.00067   0.00000  -0.00602  -0.00600  -1.52895
   D21       -0.01676  -0.00002   0.00000  -0.00095  -0.00095  -0.01771
   D22       -2.74755  -0.00073   0.00000   0.00091   0.00091  -2.74664
   D23       -0.26182  -0.00047   0.00000   0.00085   0.00085  -0.26097
   D24        3.04380   0.00008   0.00000   0.00288   0.00288   3.04669
   D25       -0.75365   0.00035   0.00000   0.00282   0.00282  -0.75083
   D26       -0.56170   0.00114   0.00000   0.00769   0.00769  -0.55400
   D27        1.92403   0.00141   0.00000   0.00763   0.00763   1.93167
   D28       -0.84833   0.00038   0.00000   0.00242   0.00243  -0.84590
   D29        2.88259   0.00109   0.00000   0.00508   0.00508   2.88767
   D30        0.37451   0.00035   0.00000   0.00154   0.00155   0.37605
[...]
 124,0.00086962,-0.00031155,-0.01203267,0.00093421,0.00667749,0.0002251
 6,0.00396403,-0.00473786,0.00215576,-0.00097474,0.06773971,-0.10000329
 ,-0.29878486,0.05489389,-0.00180581,-0.00157702,0.00081465,0.00071804,
 -0.00029157,-0.00010249,0.00011085,-0.00058530,-0.00022691,-0.00110558
 ,-0.00100276,-0.00195556,-0.00284386,0.00181453,-0.00001753,0.00224072
 ,0.00020080,0.00069757,0.10560372,0.31048625,0.02095418,0.04922635,-0.
 06759904,-0.00117332,0.00020815,-0.00030572,0.00012558,-0.00112237,-0.
 00113584,-0.00028847,-0.00031282,0.00001078,0.00898982,0.02979542,-0.0
 0249520,0.00259983,0.00004894,-0.00451034,-0.00067820,0.00022421,0.000
 86539,-0.02473881,-0.05843894,0.06757768,0.00540627,-0.00224919,-0.003
 77877,-0.00218174,0.00733009,-0.00254417,-0.02921445,-0.00373480,-0.04
 164001,-0.01938801,-0.00539892,-0.00090966,-0.00686588,-0.00402597,0.0
 0478855,0.00514206,0.01080543,0.00620750,-0.00043920,-0.00011571,0.000
 07688,-0.00033190,0.00030650,0.00019895,0.03501693,-0.00113461,-0.0006
 3724,-0.00198350,-0.00091649,-0.00055069,0.00015382,0.00083601,-0.0603
 5991,0.03725422,0.00083077,0.00052571,0.00008492,0.00061198,-0.0003071
 3,0.00124164,-0.00242191,0.00820468,-0.02655495,0.00045763,0.00011240,
 0.00021328,0.00014387,0.00035931,0.00027256,-0.00116521,0.06371375,-0.
 00035473,0.00075288,0.00191112,0.00031987,-0.00035132,0.00070899,-0.03
 074539,0.03527035,-0.32735763,0.00090377,0.00014167,0.00036302,0.00163
 544,0.00246539,-0.00104239,-0.00137631,0.00207472,-0.01868961,-0.00003
 290,-0.00003623,-0.00000816,0.00028161,-0.00007175,0.00042026,0.028988
 50,-0.03931687,0.35009582,-0.05639985,-0.06593316,-0.08300437,-0.01557
 301,0.01148519,-0.00666484,0.00465955,-0.00286824,-0.00229484,-0.00392
 424,-0.00586322,0.00184897,0.00337940,0.00169897,0.01787828,-0.0034629
 9,0.00752799,0.00021452,0.00532741,-0.00251403,0.00365142,-0.00104153,
 -0.00384104,-0.00672687,0.00062449,-0.00039929,-0.00017802,0.06664746,
 -0.06488981,-0.13243423,-0.11424747,0.00844524,-0.00594782,0.00332858,
 -0.00198377,0.00182925,0.00471203,0.00302173,0.00272942,-0.00040109,0.
 00555602,0.01076384,-0.00194324,0.00130444,-0.00673372,-0.00067567,-0.
 00350091,0.00167582,0.00050447,-0.00775940,-0.01006591,-0.02125139,-0.
 00070535,-0.00132045,-0.00015825,0.06077811,0.14006612,-0.06997019,-0.
 11951022,-0.23018384,-0.00139720,0.00124518,-0.00025265,0.00000547,0.0
 0009773,-0.00039637,-0.00070495,-0.00011965,0.00038245,-0.01016089,-0.
 01909930,-0.01851861,0.00035363,-0.00076793,0.00137856,0.00179707,0.00
 201322,-0.00365728,0.00325325,0.00453635,0.00690240,0.00025694,0.00138
 348,0.00008223,0.07443884,0.13080882,0.24256292,-0.00724886,0.00401607
 ,0.00476653,0.00176248,-0.01777652,0.00110008,-0.01236046,0.00797671,0
 .00897415,-0.02268841,-0.01012429,-0.02170135,0.00232011,0.00650108,-0
 .00583388,-0.00098554,-0.00881687,-0.00208256,0.00041303,-0.00005573,-
 0.00004137,-0.00016562,0.00022068,0.00001945,0.00080279,0.00068415,0.0
 0048186,0.00095722,-0.00025989,0.00011655,0.03342801,-0.00134455,-0.00
 024793,0.00023713,-0.00182396,-0.00787819,-0.01139664,-0.00001110,-0.0
 0022558,-0.00049123,-0.02978278,-0.31683647,-0.11017879,-0.00031747,0.
 00053535,-0.00014646,0.00022115,-0.00019925,0.00030648,0.00000491,-0.0
 0000745,-0.00001739,0.00030713,-0.00009131,-0.00000726,0.00033886,-0.0
 0021933,0.00031626,-0.00002618,-0.00005166,-0.00007613,0.03236089,0.32
 326908,0.00317487,-0.00011395,-0.00183127,-0.00243386,0.01701745,0.008
 44511,0.00529068,-0.00359905,-0.00343101,-0.02890232,-0.12186686,-0.08
 194342,-0.00086475,-0.00274987,0.00205106,-0.00002582,0.00391469,0.001
 25452,-0.00017663,0.00011226,0.00003161,-0.00038241,0.00012205,-0.0000
 2044,-0.00098065,0.00020175,0.00045876,-0.00022253,0.00008012,-0.00001
 017,0.01806268,0.11743225,0.07579539,0.00559959,-0.00230116,0.00024401
 ,-0.00010231,0.00186016,-0.00052689,0.00698516,-0.00194252,-0.00054624
 ,-0.00205215,-0.00168829,0.00036637,0.00103779,-0.00401554,0.00718036,
 -0.04162929,-0.00212358,0.02765925,-0.00286865,0.00102225,-0.00016925,
 -0.00006717,0.00001865,0.00031988,0.00715831,-0.00013421,-0.00059091,-
 0.00048446,-0.00017453,0.00020010,0.00055193,0.00008902,-0.00008698,0.
 03103083,-0.00307436,-0.00463451,0.00033365,0.00052550,-0.00134994,0.0
 0001834,-0.00016309,0.00546271,-0.02628613,0.00094574,0.00075183,-0.00
 047819,-0.00359755,-0.00152430,0.03071743,-0.00439026,-0.06501217,0.04
 028706,0.00079380,0.00041119,0.00007080,-0.00071271,-0.00016197,0.0012
 2265,-0.00021069,-0.00359505,-0.00275408,0.00036505,0.00001776,-0.0000
 1149,-0.00021948,0.00007001,0.00002565,0.00905248,0.06837990,0.0003830
 2,0.00167563,0.00113724,-0.00028846,0.00006625,0.00017998,0.00109264,0
 .00408100,-0.01863360,-0.00027259,-0.00018747,0.00019506,0.00025282,-0
 .00126937,-0.00642004,0.03254336,0.04037007,-0.32591862,-0.00008108,0.
 00025029,0.00092577,0.00022803,-0.00007370,-0.00036871,0.00143517,-0.0
 0264002,-0.00092778,-0.00016250,-0.00025216,0.00011886,0.00011066,0.00
 004952,-0.00003560,-0.03405230,-0.04235194,0.34752950,-0.00802800,0.00
 226047,-0.00033888,-0.07702745,0.04206566,-0.07638869,-0.01143204,0.00
 239895,0.00150622,-0.13132927,-0.08524761,-0.07967544,0.00535535,0.005
 34032,-0.00595816,0.00008996,-0.01008916,-0.00042808,0.00002818,-0.000
 05376,0.00000882,0.00048401,-0.00007514,0.00036348,0.00031164,0.000165
 83,0.00048055,-0.00024359,0.00015981,0.00054214,0.00046780,0.00071056,
 0.00687908,0.00022648,0.00003804,-0.00013629,0.33872268,0.00692667,-0.
 00211003,-0.00083390,0.03857238,-0.05730570,0.08245346,-0.00525934,0.0
 0060963,0.00223238,-0.07323594,-0.10991356,-0.06964061,0.00212959,-0.0
 0252188,0.00034094,-0.00104899,-0.00220553,0.00059741,-0.00016316,-0.0
 0015589,-0.00005862,-0.00017820,-0.00005905,0.00030081,0.00098678,-0.0
 0033844,0.00028132,0.00003959,-0.00072703,-0.00017167,-0.01634239,-0.0
 0137544,-0.00868252,0.00065082,0.00008494,-0.00024768,0.01854348,0.253
 38659,-0.00614712,0.00457887,0.00277399,-0.05968565,0.08268591,-0.1728
 9488,-0.00553378,0.00066612,0.00397524,-0.06412804,-0.07562441,-0.0742
 6947,0.00781250,0.00509235,-0.00634862,0.00309222,-0.00989347,-0.00133
 622,0.00082423,-0.00109868,-0.00018666,-0.00011159,0.00009400,0.000468
 95,0.00217866,0.00030615,-0.00041276,0.00178082,-0.00104194,0.00045417
 ,-0.00700437,0.00310194,-0.00014410,0.00102884,0.00036653,-0.00066558,
 0.11934344,0.01050615,0.37384537,-0.01369072,0.00421534,0.01015035,-0.
 05548114,-0.06693841,0.07499707,-0.00529060,0.00243679,0.00464067,0.00
 642774,0.01098834,-0.00036827,0.00224794,0.00539199,-0.00651147,-0.001
 27112,-0.00781527,-0.00105542,0.00062850,-0.00002119,0.00000290,0.0004
 8217,0.00026602,0.00017233,0.00085006,-0.00020784,0.00011702,0.0003362
 5,-0.00078632,0.00088646,-0.00156448,0.00030063,0.00167865,0.00033714,
 -0.00014905,0.00002812,0.00681324,0.00662616,-0.01446115,0.05620773,0.
 01111510,-0.00207762,-0.00751005,-0.05259004,-0.10075021,0.12747530,0.
 00528866,-0.00286845,-0.00294470,-0.00822759,-0.00976944,0.02312963,-0
 .00213850,-0.00407706,0.00508980,0.00119381,0.00608466,0.00044410,-0.0
 0036281,0.00003025,-0.00008955,-0.00024732,-0.00021491,-0.00026458,-0.
 00057494,0.00011885,-0.00000134,-0.00116416,0.00046488,-0.00036347,0.0
 0233359,0.00132627,-0.00178866,-0.00031709,0.00009421,0.00002781,0.001
 61355,-0.00355441,0.00224239,0.04616500,0.11459494,0.00305640,-0.00135
 161,-0.00199857,0.06397171,0.14299011,-0.26385114,0.00065963,-0.000872
 20,-0.00027976,-0.00559340,-0.00332886,0.00435930,-0.00104500,-0.00081
 458,0.00189534,0.00025576,0.00128532,0.00001175,0.00002160,-0.00001188
 ,0.00004267,0.00010217,-0.00044840,-0.00007095,-0.00005107,0.00001464,
 -0.00001373,-0.00051274,0.00046851,0.00057750,0.00140730,0.00039361,0.
 00074246,-0.00008647,-0.00003447,0.00005677,0.00965971,0.00556765,-0.0
 0494446,-0.07108692,-0.14350354,0.26384837,-0.00180107,-0.00120341,0.0
 0041397,-0.00084653,-0.00015675,0.00124146,-0.07024307,-0.02153987,0.0
 0643856,-0.00258708,-0.00603869,0.00250676,0.00778708,0.00069747,0.002
 92990,0.00606706,0.00089848,-0.00278475,0.00004196,0.00069120,-0.00014
 290,0.00037457,-0.00004983,-0.00005259,0.00284933,0.00397001,-0.001250
 33,-0.00001658,0.00001219,0.00028095,-0.00034306,-0.00084505,-0.000041
 74,-0.00516504,0.00040835,-0.00056357,0.00126116,0.00037146,0.00040828
 ,-0.00054570,-0.00030526,-0.00026505,0.53844467,0.00053631,-0.00007784
 ,0.00033975,-0.00084949,0.00093885,-0.00005836,-0.01953412,-0.20716862
 ,0.04495986,-0.00291034,-0.00317959,0.00084980,-0.00016851,0.00087635,
 -0.00327296,-0.00778868,-0.03022448,0.00855107,-0.00018931,-0.00055625
 ,0.00026334,-0.00015278,0.00009828,0.00021253,-0.00085806,-0.00208893,
 -0.00045157,0.00015109,-0.00007640,0.00017727,0.00168321,0.00117465,-0
 .00074591,0.00087066,0.00131503,0.00159604,0.00001080,-0.00006782,0.00
 037096,0.00001769,-0.00024687,-0.00007385,-0.01720216,0.51036360,-0.00
 019851,0.00010269,-0.00074011,-0.00005764,-0.00037489,0.00015404,0.009
 33462,0.05190631,-0.10851637,0.00005837,0.00031828,-0.00045452,-0.0000
 7042,-0.00247559,-0.00298223,-0.00484699,-0.01876518,0.01035220,-0.000
 18633,-0.00103281,0.00028658,0.00027794,0.00007201,0.00040107,0.006190
 75,0.02879649,-0.00690149,0.00004586,-0.00016642,0.00056331,0.00028863
 ,0.00035061,-0.00045460,0.00018152,-0.00176391,0.00130424,0.00041947,0
 .00023657,0.00085730,-0.00015601,-0.00003168,-0.00006300,0.00797377,0.
 02346832,0.58047819,0.00067235,0.00000775,-0.00036168,-0.00059019,0.00
 089927,-0.00003695,0.00333714,-0.00653915,-0.00498171,-0.00031559,-0.0
 0181866,0.00022519,-0.00034060,-0.00104847,0.00029391,0.00004511,-0.00
 051945,0.00055222,-0.00009986,-0.00006438,0.00001688,-0.00011367,0.000
 02335,-0.00001915,0.00003720,0.00064185,-0.00004405,-0.00004802,0.0000
 3640,-0.00001302,0.00020775,-0.00001393,0.00032828,0.00007360,-0.00001
 929,0.00007378,-0.00019711,-0.00014318,-0.00005040,0.00007537,-0.00012
 471,-0.00005446,-0.12742779,0.10121311,0.07512135,0.13788991,-0.000511
 51,0.00011699,0.00034323,0.00058222,-0.00072886,0.00033029,0.01593708,
 -0.02114877,-0.01714940,0.00117322,0.00060404,-0.00143759,-0.00095857,
 0.00011750,-0.00157889,-0.00056242,-0.00457093,0.00385645,-0.00012120,
 -0.00042318,0.00009384,0.00007345,-0.00003422,0.00009553,-0.00021952,0
 .00085564,0.00031897,0.00009564,-0.00003915,0.00001106,-0.00133075,-0.
 00021245,0.00097097,0.00051658,0.00005463,0.00022069,-0.00010482,0.000
 25507,0.00003576,-0.00016552,0.00012706,-0.00003350,0.09981177,-0.1629
 0533,-0.08741901,-0.10744789,0.18062386,-0.00008991,-0.00009043,-0.000
 11210,0.00020192,-0.00006840,-0.00009331,-0.00828083,0.00708774,0.0065
 1425,0.00007545,0.00113739,0.00032284,0.00024077,0.00000117,0.00075831
 ,0.00095803,0.00150801,-0.00077270,0.00000495,0.00013049,-0.00003485,0
 .00000617,-0.00003473,0.00000108,-0.00013820,-0.00058096,0.00042728,-0
 .00003691,0.00004580,-0.00002083,-0.00002364,-0.00015053,0.00015933,0.
 00015498,0.00026942,0.00035804,0.00015289,-0.00014406,-0.00018718,0.00
 002734,0.00009184,0.00006253,0.07471819,-0.08762811,-0.11602954,-0.083
 48003,0.09516901,0.12034477,-0.00005905,0.00001957,0.00006143,-0.00001
 976,-0.00017841,-0.00013036,0.00015934,-0.00154330,0.00745742,0.000401
 88,0.00028704,0.00009697,-0.00018722,0.00004337,0.00003345,-0.00007808
 ,0.00043697,0.00000138,0.00000455,0.00000578,-0.00000533,0.00002046,-0
 .00004396,-0.00000753,0.00111078,-0.00141577,0.00057205,-0.00005470,0.
 00004009,-0.00003823,0.00011992,0.00006243,0.00000675,0.00023753,0.000
 26539,-0.00002786,-0.00008833,-0.00012543,0.00020568,-0.00001541,0.000
 04064,0.00000291,-0.05952250,0.00527123,-0.05749233,0.00409062,-0.0023
 9002,0.01854570,0.05885037,0.00003352,-0.00008587,0.00025649,0.0002054
 9,0.00002701,-0.00009260,0.00713295,-0.00263483,0.03318007,0.00012490,
 -0.00000894,-0.00035733,-0.00018154,0.00030415,-0.00019502,-0.00007823
 ,0.00170466,0.00168794,-0.00000400,0.00001994,-0.00003945,-0.00005657,
 -0.00003111,-0.00013469,-0.00102621,-0.00535162,0.00128222,0.00004404,
 0.00000869,-0.00019777,-0.00011964,-0.00010907,0.00003985,0.00010448,-
 0.00048295,-0.00104586,-0.00014217,0.00016668,0.00020648,-0.00000812,-
 0.00000203,-0.00001840,0.00418596,-0.04930407,0.01516426,-0.00625712,0
 .00172972,-0.02065502,-0.00326586,0.05445828,-0.00001037,-0.00010092,-
 0.00006422,-0.00006603,0.00000114,0.00019351,-0.00182871,0.00117536,-0
 .01136296,-0.00011723,0.00000009,0.00003735,0.00045341,0.00004322,0.00
 030638,0.00009061,-0.00206656,0.00133874,-0.00001178,0.00006175,-0.000
 01377,-0.00008674,0.00005100,0.00005076,0.00035510,0.00167787,0.000674
 64,0.00003798,-0.00006873,0.00006643,-0.00013476,0.00001628,-0.0000282
 6,-0.00034429,0.00067891,0.00052856,0.00000567,0.00004406,-0.00034806,
 0.00002203,-0.00002167,0.00001167,-0.05615690,0.01835116,-0.30558299,-
 0.00389111,0.00154143,-0.01371473,0.06156991,-0.02136539,0.33012279,0.
 00035624,-0.00007649,-0.00055510,-0.00043153,0.00041441,0.00002492,-0.
 00281288,-0.00304372,-0.00016114,0.00033708,-0.00071712,0.00025540,-0.
 00006314,-0.00105878,0.00066992,0.00029913,0.00136371,0.00086611,-0.00
 002304,-0.00004271,0.00001439,-0.00001010,-0.00001029,-0.00000846,0.00
 012563,-0.00047311,0.00033685,-0.00008043,0.00006204,-0.00001018,0.000
 34548,0.00012155,-0.00034811,-0.00040531,0.00003058,0.00002669,0.00023
 931,-0.00006574,0.00007965,0.00001038,-0.00009837,-0.00005915,-0.28768
 208,-0.06013592,-0.03676218,-0.01744693,-0.00420548,-0.00299667,-0.005
 08316,-0.00066423,-0.00008929,0.31241248,-0.00092726,-0.00031599,0.000
 22818,0.00024443,-0.00076187,0.00046663,-0.03006546,-0.01131255,-0.005
 83025,0.00101803,-0.00049720,-0.00077567,0.00166074,-0.00004903,0.0003
 8667,0.00025205,-0.00114430,0.00141591,-0.00007112,-0.00000659,-0.0000
 2752,0.00016475,-0.00004716,0.00003106,0.00063900,0.00081605,0.0003251
 4,0.00007052,-0.00004987,0.00007446,-0.00027250,-0.00001336,0.00029658
 ,-0.00101406,0.00010763,-0.00023024,0.00033892,0.00021514,0.00021511,-
 0.00024708,0.00001073,-0.00008884,-0.06355571,-0.05883766,-0.00826221,
 0.02113093,0.00551490,0.00384839,0.00239950,-0.00037355,-0.00003990,0.
 06861548,0.06679592,-0.00007928,0.00033588,0.00016004,0.00031679,-0.00
 034656,-0.00000509,0.01013241,0.00128362,0.00202886,0.00082868,0.00123
 289,-0.00023107,0.00012012,0.00012107,-0.00038094,0.00021207,-0.000523
 77,0.00019885,0.00000154,-0.00001167,0.00000119,-0.00017333,0.00006709
 ,-0.00003859,-0.00027311,-0.00042220,-0.00003431,0.00009398,-0.0000482
 3,-0.00005530,-0.00031491,-0.00002246,0.00023904,-0.00013436,-0.000060
 19,0.00003195,-0.00022502,-0.00002917,-0.00041040,0.00004331,0.0001154
 9,0.00006923,-0.03519846,-0.00674914,-0.05221741,0.01630360,0.00446919
 ,0.00200228,-0.03067414,-0.00754913,-0.00245671,0.03876919,0.00807902,
 0.05086786,0.00180290,-0.00210567,-0.00186023,-0.03121488,-0.00001772,
 -0.00476268,0.00309954,-0.00026157,-0.00319472,-0.03508797,0.01364249,
 -0.00721260,-0.00219293,-0.00174179,0.00283073,-0.00017704,0.00382663,
 0.00054071,0.00012354,-0.00012972,0.00005416,0.00007209,0.00015824,-0.
 00003930,-0.00111496,-0.00012521,0.00050757,-0.00060871,0.00072397,0.0
 0014245,0.00377248,-0.00079673,-0.00002094,0.00009954,0.00005611,0.000
 08098,-0.09616919,0.01814715,0.00885439,0.00347376,-0.00141750,-0.0004
 1328,-0.00024549,-0.00002217,-0.00005890,0.00008174,-0.00013087,-0.000
 02892,0.00002499,-0.00004904,0.00013719,-0.00007613,-0.00020783,0.0001
 3354,0.16907064,-0.00097543,0.00086646,0.00155978,0.01690661,0.0012410
 0,-0.00429869,0.00039083,-0.00032927,-0.00056091,-0.00589845,0.0086732
 2,0.00468751,-0.00038954,0.00102294,-0.00041918,0.00075019,-0.00019396
 ,-0.00040340,-0.00000776,0.00005339,-0.00004461,0.00000343,-0.00001701
 ,-0.00000661,-0.00020908,0.00010510,-0.00002313,0.00046053,-0.00026390
 ,-0.00007637,-0.00090369,0.00025553,0.00191624,-0.00013379,-0.00002525
 ,0.00007445,0.01847403,-0.03673812,-0.00078320,-0.00034395,-0.00086526
 ,-0.00110351,-0.00005350,-0.00006990,-0.00004836,-0.00000182,-0.000003
 70,0.00005894,0.00001991,-0.00004954,-0.00001255,0.00002059,-0.0000113
 2,0.00001277,-0.04021034,0.02956234,0.00123951,-0.00100062,-0.00097570
 ,-0.01583970,0.00023131,0.00475509,0.00094577,-0.00019862,-0.00057833,
 -0.00809246,0.00307503,0.00060358,-0.00089684,-0.00108145,0.00120846,-
 0.00041653,0.00169580,0.00039803,-0.00014962,0.00022480,0.00006698,0.0
 0005333,0.00000248,-0.00004311,-0.00022758,-0.00004369,0.00013791,-0.0
 0035198,0.00029503,0.00006636,0.00151816,0.00000470,-0.00005793,-0.000
 19118,-0.00007440,0.00013147,0.01211948,-0.00140131,-0.02809477,0.0011
 7688,0.00000216,0.00105227,0.00004981,-0.00000106,-0.00005977,-0.00000
 003,0.00001218,-0.00000962,-0.00004455,-0.00003687,0.00005397,0.000004
 00,0.00000872,0.00001483,-0.01670211,0.01114116,0.04047389,0.00020708,
 -0.00028514,-0.00026496,-0.00054230,-0.00222886,-0.00632872,0.00022215
 ,0.00053135,-0.00033613,0.00184056,-0.00218225,-0.01128992,-0.00414343
 ,0.00120733,-0.00254909,-0.00515678,-0.00094848,-0.00265746,-0.0005889
 9,-0.00008918,-0.00055732,-0.00019541,0.00011201,-0.00001080,0.0001006
 8,0.00005157,-0.00005244,0.00000631,-0.00008005,0.00002080,0.00020743,
 0.00044462,-0.00093425,-0.00056353,0.00005544,-0.00067063,-0.02948482,
 0.00356828,0.01151339,-0.00003110,-0.00018205,0.00003034,-0.00039985,0
 .00005747,-0.00006298,0.00006897,-0.00004137,-0.00001129,0.00008777,0.
 00002138,0.00006533,-0.00001100,-0.00017334,0.00011739,-0.01473393,0.0
 1210125,0.02580566,0.05311020,0.00064625,-0.00002174,-0.00001437,-0.00
 623202,0.00421690,0.00285032,0.00140674,-0.00034688,-0.00045735,0.0009
 2442,-0.00244590,-0.01623240,0.00073098,-0.00134111,0.00180642,-0.0005
 0606,0.00128709,0.00013148,0.00041073,0.00037162,0.00056057,-0.0000375
 1,0.00000499,-0.00009954,0.00008701,-0.00004270,-0.00006441,-0.0001074
 0,0.00015436,0.00004645,0.00044538,0.00083660,-0.00258305,-0.00034033,
 0.00003630,-0.00011331,0.00359226,-0.03764515,-0.02202701,0.00027480,0
 .00157443,0.00096379,-0.00009665,0.00003700,-0.00007548,0.00004540,0.0
 0006717,0.00000404,0.00007084,0.00001446,0.00003343,-0.00003641,-0.000
 03991,0.00004551,0.01066155,-0.00321278,-0.01285533,-0.01193997,0.0364
 9525,0.00311121,-0.00116619,-0.00036384,-0.00809408,-0.00994937,-0.027
 81253,0.00364305,-0.00086784,-0.00094450,-0.01126090,-0.00379197,-0.02
 348095,-0.00436689,-0.00128752,0.00153309,-0.00174344,0.00376149,-0.00
 015923,-0.00066895,0.00052836,0.00000702,-0.00020809,0.00001892,-0.000
 11043,-0.00013378,-0.00005860,0.00010784,0.00016491,0.00001123,-0.0000
 6014,0.00029082,0.00027811,-0.00122046,-0.00060645,-0.00017564,0.00047
 248,0.01166960,-0.02135121,-0.09213185,-0.00030388,-0.00209926,-0.0015
 0823,-0.00050538,-0.00015914,-0.00039492,0.00001738,0.00014979,0.00002
 416,-0.00013332,-0.00012978,0.00018691,-0.00005685,-0.00012127,0.00021
 568,0.02101196,-0.01167035,-0.01914361,-0.01182693,0.04808024,0.164783
 52\\-0.00000460,0.00000510,0.00000342,-0.00000173,-0.00000415,0.000002
 88,-0.00000367,-0.00000143,0.00000818,0.00001072,0.00000656,-0.0000023
 5,-0.00000060,0.00000113,-0.00000071,0.00000110,-0.00000610,-0.0000027
 2,-0.00000106,-0.00000132,0.00000139,-0.00000064,0.00000045,0.00000224
 ,-0.00000220,-0.00000379,-0.00000085,-0.00000279,0.00000131,-0.0000002
 3,-0.00000457,0.00000170,0.00000157,0.00000111,-0.00000212,0.,0.000001
 22,-0.00000004,-0.00000015,0.00000018,0.00000035,0.00000036,0.00000989
 ,0.00000431,-0.00000312,-0.00000090,-0.00000359,-0.00000378,0.00000044
 ,-0.00000001,-0.00000071,-0.00000200,0.00000022,-0.00000426,0.00000026
 ,0.00000210,-0.00000060,-0.00000016,-0.00000068,-0.00000058\\\@


     SCHOPENHAUER'S LAW OF ENTROPY
 IF YOU PUT A SPOONFUL OF WINE IN A BARREL FULL
 OF SEWAGE, YOU GET SEWAGE.
 IF YOU PUT A SPOONFUL OF SEWAGE IN A BARREL FULL
 OF WINE, YOU GET SEWAGE.
 Job cpu time:       0 days  3 hours 33 minutes 43.7 seconds.
 Elapsed time:       0 days  0 hours 13 minutes 30.8 seconds.
 File lengths (MBytes):  RWF=    269 Int=      0 D2E=      0 Chk=     13 Scr=      1
 Normal termination of Gaussian 16 at Fri Feb 18 19:13:12 2022.
