 Entering Gaussian System, Link 0=g16
 Initial command:
 /apps/skylake/gaussian/16/A.03/g16/l1.exe "/beegfs/scratch/user/d/ehef20/Gau-166996.inp" -scrdir="/beegfs/scratch/user/d/ehef20/"
 Entering Link 1 = /apps/skylake/gaussian/16/A.03/g16/l1.exe PID=    166997.
  
 Copyright (c) 1988,1990,1992,1993,1995,1998,2003,2009,2016,
            Gaussian, Inc.  All Rights Reserved.
  
 This is part of the Gaussian(R) 16 program.  It is based on
 the Gaussian(R) 09 system (copyright 2009, Gaussian, Inc.),
 the Gaussian(R) 03 system (copyright 2003, Gaussian, Inc.),
 the Gaussian(R) 98 system (copyright 1998, Gaussian, Inc.),
 the Gaussian(R) 94 system (copyright 1995, Gaussian, Inc.),
 the Gaussian 92(TM) system (copyright 1992, Gaussian, Inc.),
 the Gaussian 90(TM) system (copyright 1990, Gaussian, Inc.),
 the Gaussian 88(TM) system (copyright 1988, Gaussian, Inc.),
 the Gaussian 86(TM) system (copyright 1986, Carnegie Mellon
 University), and the Gaussian 82(TM) system (copyright 1983,
 Carnegie Mellon University). Gaussian is a federally registered
 trademark of Gaussian, Inc.
  
 This software contains proprietary and confidential information,
 including trade secrets, belonging to Gaussian, Inc.
  
 This software is provided under written license and may be
 used, copied, transmitted, or stored only in accord with that
 written license.
  
 The following legend is applicable only to US Government
 contracts under FAR:
  
                    RESTRICTED RIGHTS LEGEND
  
 Use, reproduction and disclosure by the US Government is
 subject to restrictions as set forth in subparagraphs (a)
 and (c) of the Commercial Computer Software - Restricted
 Rights clause in FAR 52.227-19.
  
 Gaussian, Inc.
 340 Quinnipiac St., Bldg. 40, Wallingford CT 06492
  
  
 ---------------------------------------------------------------
 Warning -- This program may not be used in any manner that
 competes with the business of Gaussian, Inc. or will provide
 assistance to any competitor of Gaussian, Inc.  The licensee
 of this program is prohibited from giving any competitor of
 Gaussian, Inc. access to this program.  By using this program,
 the user acknowledges that Gaussian, Inc. is engaged in the
 business of creating and licensing software in the field of
 computational chemistry and represents and warrants to the
 licensee that it is not a competitor of Gaussian, Inc. and that
 it will not use this program in any manner prohibited above.
 ---------------------------------------------------------------
  

 Cite this work as:
 Gaussian 16, Revision A.03,
 M. J. Frisch, G. W. Trucks, H. B. Schlegel, G. E. Scuseria, 
 M. A. Robb, J. R. Cheeseman, G. Scalmani, V. Barone, 
 G. A. Petersson, H. Nakatsuji, X. Li, M. Caricato, A. V. Marenich, 
 J. Bloino, B. G. Janesko, R. Gomperts, B. Mennucci, H. P. Hratchian, 
 J. V. Ortiz, A. F. Izmaylov, J. L. Sonnenberg, D. Williams-Young, 
 F. Ding, F. Lipparini, F. Egidi, J. Goings, B. Peng, A. Petrone, 
 T. Henderson, D. Ranasinghe, V. G. Zakrzewski, J. Gao, N. Rega, 
 G. Zheng, W. Liang, M. Hada, M. Ehara, K. Toyota, R. Fukuda, 
 J. Hasegawa, M. Ishida, T. Nakajima, Y. Honda, O. Kitao, H. Nakai, 
 T. Vreven, K. Throssell, J. A. Montgomery, Jr., J. E. Peralta, 
 F. Ogliaro, M. J. Bearpark, J. J. Heyd, E. N. Brothers, K. N. Kudin, 
 V. N. Staroverov, T. A. Keith, R. Kobayashi, J. Normand, 
 K. Raghavachari, A. P. Rendell, J. C. Burant, S. S. Iyengar, 
 J. Tomasi, M. Cossi, J. M. Millam, M. Klene, C. Adamo, R. Cammi, 
 J. W. Ochterski, R. L. Martin, K. Morokuma, O. Farkas, 
 J. B. Foresman, and D. J. Fox, Gaussian, Inc., Wallingford CT, 2016.
 
 ******************************************
 Gaussian 16:  ES64L-G16RevA.03 25-Dec-2016
                27-Dec-2020 
 ******************************************
 %nprocshared=24
 Will use up to   24 processors via shared memory.
 %mem=140GB
 ----------------------------------------------------------------------
 # wB97XD def2tzvp, opt=(ts, noeigen, calcfc, maxcycles=70, maxstep=8),
  freq=noraman
 ----------------------------------------------------------------------
 1/5=1,6=70,8=8,10=4,11=1,18=20,26=3,38=1/1,3;
 2/9=110,12=2,17=6,18=5,40=1/2;
 3/5=44,7=101,11=2,25=1,30=1,71=2,74=-58,140=1/1,2,3;
 4//1;
 5/5=2,38=5/2;
 8/6=4,10=90,11=11/1;
 11/6=1,8=1,9=11,15=111,16=1/1,2,10;
 10/6=1,13=1/2;
 6/7=2,8=2,9=2,10=2,28=1/1;
 7/10=1,18=20,25=1/1,2,3,16;
 1/5=1,6=70,8=8,10=4,11=1,18=20,26=3/3(2);
 2/9=110/2;
 99//99;
 2/9=110/2;
 3/5=44,7=101,11=2,25=1,30=1,71=1,74=-58/1,2,3;
 4/5=5,16=3,69=1/1;
 5/5=2,38=5/2;
 7//1,2,3,16;
 1/5=1,6=70,8=8,11=1,18=20,26=3/3(-5);
 2/9=110/2;
 6/7=2,8=2,9=2,10=2,19=2,28=1/1;
 99/9=1/99;
 ----------------------
 1_iteration/ts-1-1.out
 ----------------------
 Symbolic Z-matrix:
 Charge = -1 Multiplicity = 1
 C                     0.0627    0.05706   0.78881 
 C                     1.28821   0.45534   0.245 
 C                     2.27286  -0.47916  -0.22997 
 O                     2.13489  -1.7042   -0.3076 
 C                    -1.21192  -0.27835  -1.05302 
 H                    -0.83325   0.52331  -1.66622 
 H                    -0.87551  -1.29213  -1.19425 
 N                    -2.51509  -0.13394  -0.68399 
 O                    -3.07025   0.98173  -0.80173 
 O                    -3.11279  -1.09313  -0.14269 
 C                    -0.82535   1.11001   1.40373 
 C                    -0.17097  -1.30059   1.3982 
 C                     1.47671   1.93228  -0.02113 
 C                     3.62671   0.068    -0.70069 
 H                    -1.79272   0.68793   1.67387 
 H                    -0.35046   1.48973   2.31692 
 H                    -1.01081   1.95186   0.73945 
 H                    -1.22903  -1.56118   1.33275 
 H                     0.43504  -2.06658   0.92912 
 H                     0.09516  -1.24045   2.46155 
 H                     2.44884   2.16086  -0.45175 
 H                     0.72262   2.3072   -0.72611 
 H                     1.37843   2.5395    0.88505 
 H                     4.2914   -0.78239  -0.84247 
 H                     3.52635   0.59389  -1.65424 
 H                     4.07101   0.76326   0.01486 
 
 Add virtual bond connecting atoms C5         and C1         Dist= 4.28D+00.

 GradGradGradGradGradGradGradGradGradGradGradGradGradGradGradGradGradGrad
 Berny optimization.
 Initialization pass.
                           ----------------------------
                           !    Initial Parameters    !
                           ! (Angstroms and Degrees)  !
 --------------------------                            --------------------------
 ! Name  Definition              Value          Derivative Info.                !
 --------------------------------------------------------------------------------
 ! R1    R(1,2)                  1.3987         calculate D2E/DX2 analytically  !
 ! R2    R(1,5)                  2.2648         calculate D2E/DX2 analytically  !
 ! R3    R(1,11)                 1.5085         calculate D2E/DX2 analytically  !
 ! R4    R(1,12)                 1.5064         calculate D2E/DX2 analytically  !
 ! R5    R(2,3)                  1.4382         calculate D2E/DX2 analytically  !
 ! R6    R(2,13)                 1.5125         calculate D2E/DX2 analytically  !
 ! R7    R(3,4)                  1.2352         calculate D2E/DX2 analytically  !
 ! R8    R(3,14)                 1.5342         calculate D2E/DX2 analytically  !
 ! R9    R(5,6)                  1.078          calculate D2E/DX2 analytically  !
 ! R10   R(5,7)                  1.0774         calculate D2E/DX2 analytically  !
 ! R11   R(5,8)                  1.3621         calculate D2E/DX2 analytically  !
 ! R12   R(8,9)                  1.2517         calculate D2E/DX2 analytically  !
 ! R13   R(8,10)                 1.2531         calculate D2E/DX2 analytically  !
 ! R14   R(11,15)                1.0895         calculate D2E/DX2 analytically  !
 ! R15   R(11,16)                1.0971         calculate D2E/DX2 analytically  !
 ! R16   R(11,17)                1.0883         calculate D2E/DX2 analytically  !
 ! R17   R(12,18)                1.0916         calculate D2E/DX2 analytically  !
 ! R18   R(12,19)                1.0835         calculate D2E/DX2 analytically  !
 ! R19   R(12,20)                1.0978         calculate D2E/DX2 analytically  !
 ! R20   R(13,21)                1.0875         calculate D2E/DX2 analytically  !
 ! R21   R(13,22)                1.0983         calculate D2E/DX2 analytically  !
 ! R22   R(13,23)                1.0952         calculate D2E/DX2 analytically  !
 ! R23   R(14,24)                1.0886         calculate D2E/DX2 analytically  !
 ! R24   R(14,25)                1.0936         calculate D2E/DX2 analytically  !
 ! R25   R(14,26)                1.0922         calculate D2E/DX2 analytically  !
 ! A1    A(2,1,5)              102.656          calculate D2E/DX2 analytically  !
 ! A2    A(2,1,11)             118.3958         calculate D2E/DX2 analytically  !
 ! A3    A(2,1,12)             123.3568         calculate D2E/DX2 analytically  !
 ! A4    A(5,1,11)              95.9445         calculate D2E/DX2 analytically  !
 ! A5    A(5,1,12)              96.2122         calculate D2E/DX2 analytically  !
 ! A6    A(11,1,12)            111.8933         calculate D2E/DX2 analytically  !
 ! A7    A(1,2,3)              122.9061         calculate D2E/DX2 analytically  !
 ! A8    A(1,2,13)             117.1082         calculate D2E/DX2 analytically  !
 ! A9    A(3,2,13)             119.4098         calculate D2E/DX2 analytically  !
 ! A10   A(2,3,4)              126.0645         calculate D2E/DX2 analytically  !
 ! A11   A(2,3,14)             118.2774         calculate D2E/DX2 analytically  !
 ! A12   A(4,3,14)             115.6565         calculate D2E/DX2 analytically  !
 ! A13   A(1,5,6)               98.9034         calculate D2E/DX2 analytically  !
 ! A14   A(1,5,7)               94.0268         calculate D2E/DX2 analytically  !
 ! A15   A(1,5,8)              107.6026         calculate D2E/DX2 analytically  !
 ! A16   A(6,5,7)              121.0298         calculate D2E/DX2 analytically  !
 ! A17   A(6,5,8)              114.2896         calculate D2E/DX2 analytically  !
 ! A18   A(7,5,8)              115.7214         calculate D2E/DX2 analytically  !
 ! A19   A(5,8,9)              119.5609         calculate D2E/DX2 analytically  !
 ! A20   A(5,8,10)             119.4864         calculate D2E/DX2 analytically  !
 ! A21   A(9,8,10)             120.753          calculate D2E/DX2 analytically  !
 ! A22   A(1,11,15)            110.6945         calculate D2E/DX2 analytically  !
 ! A23   A(1,11,16)            109.031          calculate D2E/DX2 analytically  !
 ! A24   A(1,11,17)            113.0456         calculate D2E/DX2 analytically  !
 ! A25   A(15,11,16)           108.1828         calculate D2E/DX2 analytically  !
 ! A26   A(15,11,17)           107.441          calculate D2E/DX2 analytically  !
 ! A27   A(16,11,17)           108.3063         calculate D2E/DX2 analytically  !
 ! A28   A(1,12,18)            109.9524         calculate D2E/DX2 analytically  !
 ! A29   A(1,12,19)            112.04           calculate D2E/DX2 analytically  !
 ! A30   A(1,12,20)            107.7503         calculate D2E/DX2 analytically  !
 ! A31   A(18,12,19)           110.327          calculate D2E/DX2 analytically  !
 ! A32   A(18,12,20)           107.8253         calculate D2E/DX2 analytically  !
 ! A33   A(19,12,20)           108.8129         calculate D2E/DX2 analytically  !
 ! A34   A(2,13,21)            112.7252         calculate D2E/DX2 analytically  !
 ! A35   A(2,13,22)            111.144          calculate D2E/DX2 analytically  !
 ! A36   A(2,13,23)            112.6199         calculate D2E/DX2 analytically  !
 ! A37   A(21,13,22)           106.7285         calculate D2E/DX2 analytically  !
 ! A38   A(21,13,23)           106.9355         calculate D2E/DX2 analytically  !
 ! A39   A(22,13,23)           106.2733         calculate D2E/DX2 analytically  !
 ! A40   A(3,14,24)            107.4675         calculate D2E/DX2 analytically  !
 ! A41   A(3,14,25)            110.9804         calculate D2E/DX2 analytically  !
 ! A42   A(3,14,26)            112.6436         calculate D2E/DX2 analytically  !
 ! A43   A(24,14,25)           108.5499         calculate D2E/DX2 analytically  !
 ! A44   A(24,14,26)           109.5254         calculate D2E/DX2 analytically  !
 ! A45   A(25,14,26)           107.607          calculate D2E/DX2 analytically  !
 ! D1    D(5,1,2,3)            -83.0924         calculate D2E/DX2 analytically  !
 ! D2    D(5,1,2,13)            88.1409         calculate D2E/DX2 analytically  !
 ! D3    D(11,1,2,3)           172.8997         calculate D2E/DX2 analytically  !
 ! D4    D(11,1,2,13)          -15.867          calculate D2E/DX2 analytically  !
 ! D5    D(12,1,2,3)            23.2038         calculate D2E/DX2 analytically  !
 ! D6    D(12,1,2,13)         -165.5629         calculate D2E/DX2 analytically  !
 ! D7    D(2,1,5,6)            -36.5243         calculate D2E/DX2 analytically  !
 ! D8    D(2,1,5,7)             85.7579         calculate D2E/DX2 analytically  !
 ! D9    D(2,1,5,8)           -155.6365         calculate D2E/DX2 analytically  !
 ! D10   D(11,1,5,6)            84.3676         calculate D2E/DX2 analytically  !
 ! D11   D(11,1,5,7)          -153.3502         calculate D2E/DX2 analytically  !
 ! D12   D(11,1,5,8)           -34.7447         calculate D2E/DX2 analytically  !
 ! D13   D(12,1,5,6)          -162.7747         calculate D2E/DX2 analytically  !
 ! D14   D(12,1,5,7)           -40.4925         calculate D2E/DX2 analytically  !
 ! D15   D(12,1,5,8)            78.1131         calculate D2E/DX2 analytically  !
 ! D16   D(2,1,11,15)          172.9407         calculate D2E/DX2 analytically  !
 ! D17   D(2,1,11,16)          -68.1673         calculate D2E/DX2 analytically  !
 ! D18   D(2,1,11,17)           52.351          calculate D2E/DX2 analytically  !
 ! D19   D(5,1,11,15)           65.0802         calculate D2E/DX2 analytically  !
 ! D20   D(5,1,11,16)         -176.0278         calculate D2E/DX2 analytically  !
 ! D21   D(5,1,11,17)          -55.5095         calculate D2E/DX2 analytically  !
 ! D22   D(12,1,11,15)         -34.0742         calculate D2E/DX2 analytically  !
 ! D23   D(12,1,11,16)          84.8178         calculate D2E/DX2 analytically  !
 ! D24   D(12,1,11,17)        -154.664          calculate D2E/DX2 analytically  !
 ! D25   D(2,1,12,18)         -154.1032         calculate D2E/DX2 analytically  !
 ! D26   D(2,1,12,19)          -31.0333         calculate D2E/DX2 analytically  !
 ! D27   D(2,1,12,20)           88.6289         calculate D2E/DX2 analytically  !
 ! D28   D(5,1,12,18)          -44.4994         calculate D2E/DX2 analytically  !
 ! D29   D(5,1,12,19)           78.5706         calculate D2E/DX2 analytically  !
 ! D30   D(5,1,12,20)         -161.7672         calculate D2E/DX2 analytically  !
 ! D31   D(11,1,12,18)          54.4764         calculate D2E/DX2 analytically  !
 ! D32   D(11,1,12,19)         177.5464         calculate D2E/DX2 analytically  !
 ! D33   D(11,1,12,20)         -62.7914         calculate D2E/DX2 analytically  !
 ! D34   D(1,2,3,4)              5.3919         calculate D2E/DX2 analytically  !
 ! D35   D(1,2,3,14)          -175.0995         calculate D2E/DX2 analytically  !
 ! D36   D(13,2,3,4)          -165.6485         calculate D2E/DX2 analytically  !
 ! D37   D(13,2,3,14)           13.8602         calculate D2E/DX2 analytically  !
 ! D38   D(1,2,13,21)         -179.4472         calculate D2E/DX2 analytically  !
 ! D39   D(1,2,13,22)          -59.6738         calculate D2E/DX2 analytically  !
 ! D40   D(1,2,13,23)           59.4456         calculate D2E/DX2 analytically  !
 ! D41   D(3,2,13,21)           -7.8938         calculate D2E/DX2 analytically  !
 ! D42   D(3,2,13,22)          111.8795         calculate D2E/DX2 analytically  !
 ! D43   D(3,2,13,23)         -129.0011         calculate D2E/DX2 analytically  !
 ! D44   D(2,3,14,24)          169.6638         calculate D2E/DX2 analytically  !
 ! D45   D(2,3,14,25)          -71.7905         calculate D2E/DX2 analytically  !
 ! D46   D(2,3,14,26)           48.9391         calculate D2E/DX2 analytically  !
 ! D47   D(4,3,14,24)          -10.7768         calculate D2E/DX2 analytically  !
 ! D48   D(4,3,14,25)          107.7689         calculate D2E/DX2 analytically  !
 ! D49   D(4,3,14,26)         -131.5015         calculate D2E/DX2 analytically  !
 ! D50   D(1,5,8,9)             93.1049         calculate D2E/DX2 analytically  !
 ! D51   D(1,5,8,10)           -81.7996         calculate D2E/DX2 analytically  !
 ! D52   D(6,5,8,9)            -15.6381         calculate D2E/DX2 analytically  !
 ! D53   D(6,5,8,10)           169.4573         calculate D2E/DX2 analytically  !
 ! D54   D(7,5,8,9)           -163.3263         calculate D2E/DX2 analytically  !
 ! D55   D(7,5,8,10)            21.7692         calculate D2E/DX2 analytically  !
 --------------------------------------------------------------------------------
 Trust Radius=8.00D-02 FncErr=1.00D-07 GrdErr=1.00D-06 EigMax=2.50D+02 EigMin=1.00D-04
 Number of steps in this run=     70 maximum allowed number of steps=    156.
 Search for a saddle point of order  1.
 GradGradGradGradGradGradGradGradGradGradGradGradGradGradGradGradGradGrad

                          Input orientation:                          
 ---------------------------------------------------------------------
 Center     Atomic      Atomic             Coordinates (Angstroms)
 Number     Number       Type             X           Y           Z
 ---------------------------------------------------------------------
      1          6           0        0.062700    0.057060    0.788810
      2          6           0        1.288210    0.455340    0.245000
      3          6           0        2.272860   -0.479160   -0.229970
      4          8           0        2.134890   -1.704200   -0.307600
      5          6           0       -1.211920   -0.278350   -1.053020
      6          1           0       -0.833250    0.523310   -1.666220
      7          1           0       -0.875510   -1.292130   -1.194250
      8          7           0       -2.515090   -0.133940   -0.683990
      9          8           0       -3.070250    0.981730   -0.801730
     10          8           0       -3.112790   -1.093130   -0.142690
     11          6           0       -0.825350    1.110010    1.403730
     12          6           0       -0.170970   -1.300590    1.398200
     13          6           0        1.476710    1.932280   -0.021130
     14          6           0        3.626710    0.068000   -0.700690
     15          1           0       -1.792720    0.687930    1.673870
     16          1           0       -0.350460    1.489730    2.316920
     17          1           0       -1.010810    1.951860    0.739450
     18          1           0       -1.229030   -1.561180    1.332750
     19          1           0        0.435040   -2.066580    0.929120
     20          1           0        0.095160   -1.240450    2.461550
     21          1           0        2.448840    2.160860   -0.451750
     22          1           0        0.722620    2.307200   -0.726110
     23          1           0        1.378430    2.539500    0.885050
     24          1           0        4.291400   -0.782390   -0.842470
     25          1           0        3.526350    0.593890   -1.654240
     26          1           0        4.071010    0.763260    0.014860
 ---------------------------------------------------------------------
                    Distance matrix (angstroms):
                    1          2          3          4          5
     1  C    0.000000
     2  C    1.398653   0.000000
     3  C    2.492038   1.438201   0.000000
     4  O    2.932256   2.384501   1.235227   0.000000
     5  C    2.264839   2.910980   3.586283   3.713467   0.000000
     6  H    2.654673   2.856217   3.565905   3.951899   1.077991
     7  H    2.575476   3.131577   3.391606   3.165195   1.077436
     8  N    2.975000   3.959213   4.821802   4.922367   1.362090
     9  O    3.633209   4.513192   5.568656   5.878084   2.259278
    10  O    3.503479   4.681545   5.421236   5.285712   2.259618
    11  C    1.508464   2.497676   3.846211   4.428482   2.848263
    12  C    1.506377   2.557805   3.049261   2.896488   2.852548
    13  C    2.484326   1.512518   2.548041   3.706650   3.630484
    14  C    3.862758   2.552047   1.534233   2.349625   4.863788
    15  H    2.150328   3.404100   4.638496   5.007457   2.950755
    16  H    2.135033   2.836909   4.152708   4.823511   3.901886
    17  H    2.178331   2.787391   4.199062   4.935435   2.868315
    18  H    2.140826   3.403829   3.984482   3.745285   2.708846
    19  H    2.160595   2.748818   2.690906   2.133140   3.136738
    20  H    2.117226   3.035155   3.544886   3.470411   3.871214
    21  H    3.414473   2.177457   2.655157   3.880468   4.439869
    22  H    2.791703   2.166179   3.226949   4.273288   3.245672
    23  H    2.811213   2.182092   3.339997   4.472542   4.290257
    24  H    4.609518   3.425451   2.131105   2.405484   5.530363
    25  H    4.272417   2.938636   2.179729   3.005132   4.855252
    26  H    4.142978   2.809227   2.199294   3.152919   5.489505
                    6          7          8          9         10
     6  H    0.000000
     7  H    1.876263   0.000000
     8  N    2.055563   2.071230   0.000000
     9  O    2.441651   3.184556   1.251713   0.000000
    10  O    3.182817   2.480081   1.253115   2.177427   0.000000
    11  C    3.125520   3.538685   2.959934   3.149617   3.532368
    12  C    3.627106   2.686493   3.345368   4.295870   3.327414
    13  C    3.166612   4.160044   4.543470   4.710385   5.498308
    14  C    4.585935   4.729010   6.145142   6.759762   6.861519
    15  H    3.479064   3.603890   2.599383   2.801249   2.866121
    16  H    4.127040   4.510292   4.040716   4.169089   4.511243
    17  H    2.803485   3.779017   2.939320   2.749124   3.803742
    18  H    3.673631   2.565754   2.785355   3.796378   2.438144
    19  H    3.879675   2.612664   3.878207   4.957327   3.831903
    20  H    4.583806   3.782822   4.234642   5.060326   4.134575
    21  H    3.863758   4.850335   5.473632   5.654484   6.451023
    22  H    2.546920   3.965899   4.055084   4.018514   5.158778
    23  H    3.932624   4.907660   4.976813   5.006259   5.867138
    24  H    5.352145   5.203897   6.839145   7.570183   7.443674
    25  H    4.360188   4.810929   6.161990   6.662757   7.014913
    26  H    5.189930   5.491324   6.683567   7.191116   7.421455
                   11         12         13         14         15
    11  C    0.000000
    12  C    2.497846   0.000000
    13  C    2.829458   3.896254   0.000000
    14  C    5.033409   4.549808   2.925721   0.000000
    15  H    1.089464   2.580752   3.887236   5.949208   0.000000
    16  H    1.097098   2.943153   3.000146   5.190873   1.771020
    17  H    1.088290   3.423115   2.601273   5.208601   1.755575
    18  H    2.702453   1.091642   4.621502   5.510655   2.343631
    19  H    3.450299   1.083524   4.240157   4.171267   3.620068
    20  H    2.736966   1.097796   4.258943   4.917687   2.811260
    21  H    3.907354   4.718830   1.087529   2.414417   4.967757
    22  H    2.892351   4.281045   1.098278   3.667206   3.835215
    23  H    2.677521   4.172560   1.095234   3.698330   3.755894
    24  H    5.899807   5.020147   3.995812   1.088613   6.746134
    25  H    5.343674   5.155252   2.942679   1.093568   6.275163
    26  H    5.101327   4.916045   2.845750   1.092154   6.094368
                   16         17         18         19         20
    16  H    0.000000
    17  H    1.771451   0.000000
    18  H    3.323933   3.569464   0.000000
    19  H    3.897479   4.274847   1.785350   0.000000
    20  H    2.770086   3.792050   1.769332   1.773796   0.000000
    21  H    3.993999   3.664944   5.528540   4.881951   5.059253
    22  H    3.328632   2.297588   4.797104   4.685343   4.810478
    23  H    2.478171   2.464749   4.880047   4.701904   4.291871
    24  H    6.057321   6.171874   5.984417   4.433868   5.360485
    25  H    5.621592   5.306567   6.014988   4.827841   5.663709
    26  H    5.037523   5.269032   5.935510   4.697249   5.080210
                   21         22         23         24         25
    21  H    0.000000
    22  H    1.754002   0.000000
    23  H    1.753904   1.754961   0.000000
    24  H    3.494340   4.721790   4.743909   0.000000
    25  H    2.249979   3.414346   3.853174   1.771558   0.000000
    26  H    2.191448   3.760918   3.340995   1.781185   1.763869
                   26
    26  H    0.000000
 Stoichiometry    C8H14NO3(1-)
 Framework group  C1[X(C8H14NO3)]
 Deg. of freedom    72
 Full point group                 C1      NOp   1
 Largest Abelian subgroup         C1      NOp   1
 Largest concise Abelian subgroup C1      NOp   1
                         Standard orientation:                         
 ---------------------------------------------------------------------
 Center     Atomic      Atomic             Coordinates (Angstroms)
 Number     Number       Type             X           Y           Z
 ---------------------------------------------------------------------
      1          6           0        0.062701    0.057060    0.788810
      2          6           0        1.288211    0.455340    0.245000
      3          6           0        2.272861   -0.479160   -0.229970
      4          8           0        2.134891   -1.704200   -0.307600
      5          6           0       -1.211919   -0.278350   -1.053020
      6          1           0       -0.833249    0.523310   -1.666220
      7          1           0       -0.875509   -1.292130   -1.194250
      8          7           0       -2.515089   -0.133940   -0.683990
      9          8           0       -3.070249    0.981730   -0.801730
     10          8           0       -3.112789   -1.093130   -0.142690
     11          6           0       -0.825349    1.110010    1.403730
     12          6           0       -0.170969   -1.300590    1.398200
     13          6           0        1.476711    1.932280   -0.021130
     14          6           0        3.626711    0.068000   -0.700690
     15          1           0       -1.792719    0.687930    1.673870
     16          1           0       -0.350459    1.489730    2.316920
     17          1           0       -1.010809    1.951860    0.739450
     18          1           0       -1.229029   -1.561180    1.332750
     19          1           0        0.435041   -2.066580    0.929120
     20          1           0        0.095161   -1.240450    2.461550
     21          1           0        2.448841    2.160860   -0.451750
     22          1           0        0.722621    2.307200   -0.726110
     23          1           0        1.378431    2.539500    0.885050
     24          1           0        4.291401   -0.782390   -0.842470
     25          1           0        3.526351    0.593890   -1.654240
     26          1           0        4.071011    0.763260    0.014860
 ---------------------------------------------------------------------
 Rotational constants (GHZ):           1.5683490           0.5358126           0.4930971
 Standard basis: def2TZVP (5D, 7F)
 There are   516 symmetry adapted cartesian basis functions of A   symmetry.
 There are   456 symmetry adapted basis functions of A   symmetry.
   456 basis functions,   724 primitive gaussians,   516 cartesian basis functions
    47 alpha electrons       47 beta electrons
       nuclear repulsion energy       744.9730748825 Hartrees.
 NAtoms=   26 NActive=   26 NUniq=   26 SFac= 1.00D+00 NAtFMM=   60 NAOKFM=F Big=F
 Integral buffers will be    131072 words long.
 Raffenetti 2 integral format.
 Two-electron integral symmetry is turned on.
 Nuclear repulsion after empirical dispersion term =      744.9530455434 Hartrees.
 One-electron integrals computed using PRISM.
   1 Symmetry operations used in ECPInt.
 ECPInt:  NShTT=   17766 NPrTT=   52956 LenC2=   16847 LenP2D=   38253.
 LDataN:  DoStor=T MaxTD1= 6 Len=  172
 NBasis=   456 RedAO= T EigKep=  5.71D-05  NBF=   456
 NBsUse=   456 1.00D-06 EigRej= -1.00D+00 NBFU=   456
 ExpMin= 9.52D-02 ExpMax= 2.70D+04 ExpMxC= 9.22D+02 IAcc=3 IRadAn=         5 AccDes= 0.00D+00
 Harris functional with IExCor= 4639 and IRadAn=       5 diagonalized for initial guess.
 HarFok:  IExCor= 4639 AccDes= 0.00D+00 IRadAn=         5 IDoV= 1 UseB2=F ITyADJ=14
 ICtDFT=  3500011 ScaDFX=  1.000000  1.000000  1.000000  1.000000
 FoFCou: FMM=F IPFlag=           0 FMFlag=      100000 FMFlg1=           0
         NFxFlg=           0 DoJE=T BraDBF=F KetDBF=T FulRan=T
         wScrn=  0.000000 ICntrl=       500 IOpCl=  0 I1Cent=   200000004 NGrid=           0
         NMat0=    1 NMatS0=      1 NMatT0=    0 NMatD0=    1 NMtDS0=    0 NMtDT0=    0
 Petite list used in FoFCou.
 Requested convergence on RMS density matrix=1.00D-08 within 128 cycles.
 Requested convergence on MAX density matrix=1.00D-06.
 Requested convergence on             energy=1.00D-06.
 No special actions if energy rises.
 Integral accuracy reduced to 1.0D-05 until final iterations.
 Initial convergence to 1.0D-05 achieved.  Increase integral accuracy.
 SCF Done:  E(RwB97XD) =  -593.658831752     A.U. after   17 cycles
            NFock= 17  Conv=0.86D-08     -V/T= 2.0045
 DoSCS=F DFT=T ScalE2(SS,OS)=  1.000000  1.000000
 Range of M.O.s used for correlation:     1   456
 NBasis=   456 NAE=    47 NBE=    47 NFC=     0 NFV=     0
 NROrb=    456 NOA=    47 NOB=    47 NVA=   409 NVB=   409

 **** Warning!!: The largest alpha MO coefficient is  0.23812444D+02

   1 Symmetry operations used in ECPInt.
 ECPInt:  NShTT=   17766 NPrTT=   52956 LenC2=   16847 LenP2D=   38253.
 LDataN:  DoStor=T MaxTD1= 7 Len=  274
 Symmetrizing basis deriv contribution to polar:
 IMax=3 JMax=2 DiffMx= 0.00D+00
 G2DrvN: will do    27 centers at a time, making    1 passes.
 Calling FoFCou, ICntrl=  3107 FMM=F I1Cent=   0 AccDes= 0.00D+00.
 End of G2Drv F.D. properties file   721 does not exist.
 End of G2Drv F.D. properties file   722 does not exist.
 End of G2Drv F.D. properties file   788 does not exist.
          IDoAtm=11111111111111111111111111
          Differentiating once with respect to nuclear coordinates.
 CalDSu exits because no D1Ps are significant.
          There are    81 degrees of freedom in the 1st order CPHF.  IDoFFX=6 NUNeed=     0.
     75 vectors produced by pass  0 Test12= 2.37D-14 1.23D-09 XBig12= 1.52D-01 1.33D-01.
 AX will form    75 AO Fock derivatives at one time.
     75 vectors produced by pass  1 Test12= 2.37D-14 1.23D-09 XBig12= 1.80D-02 2.41D-02.
     75 vectors produced by pass  2 Test12= 2.37D-14 1.23D-09 XBig12= 9.26D-04 5.06D-03.
     75 vectors produced by pass  3 Test12= 2.37D-14 1.23D-09 XBig12= 1.35D-05 5.88D-04.
     75 vectors produced by pass  4 Test12= 2.37D-14 1.23D-09 XBig12= 1.19D-07 3.69D-05.
     75 vectors produced by pass  5 Test12= 2.37D-14 1.23D-09 XBig12= 9.14D-10 3.90D-06.
     75 vectors produced by pass  6 Test12= 2.37D-14 1.23D-09 XBig12= 7.91D-12 2.64D-07.
     35 vectors produced by pass  7 Test12= 2.37D-14 1.23D-09 XBig12= 6.09D-14 2.55D-08.
      4 vectors produced by pass  8 Test12= 2.37D-14 1.23D-09 XBig12= 2.32D-15 3.37D-09.
      2 vectors produced by pass  9 Test12= 2.37D-14 1.23D-09 XBig12= 8.47D-16 2.77D-09.
 InvSVY:  IOpt=1 It=  1 EMax= 2.86D-16
 Solved reduced A of dimension   566 with    81 vectors.
 End of Minotr F.D. properties file   721 does not exist.
 End of Minotr F.D. properties file   722 does not exist.
 End of Minotr F.D. properties file   788 does not exist.

 **********************************************************************

            Population analysis using the SCF density.

 **********************************************************************

 Orbital symmetries:
       Occupied  (A) (A) (A) (A) (A) (A) (A) (A) (A) (A) (A) (A)
                 (A) (A) (A) (A) (A) (A) (A) (A) (A) (A) (A) (A)
                 (A) (A) (A) (A) (A) (A) (A) (A) (A) (A) (A) (A)
                 (A) (A) (A) (A) (A) (A) (A) (A) (A) (A) (A)
       Virtual   (A) (A) (A) (A) (A) (A) (A) (A) (A) (A) (A) (A)
                 (A) (A) (A) (A) (A) (A) (A) (A) (A) (A) (A) (A)
                 (A) (A) (A) (A) (A) (A) (A) (A) (A) (A) (A) (A)
                 (A) (A) (A) (A) (A) (A) (A) (A) (A) (A) (A) (A)
                 (A) (A) (A) (A) (A) (A) (A) (A) (A) (A) (A) (A)
                 (A) (A) (A) (A) (A) (A) (A) (A) (A) (A) (A) (A)
                 (A) (A) (A) (A) (A) (A) (A) (A) (A) (A) (A) (A)
                 (A) (A) (A) (A) (A) (A) (A) (A) (A) (A) (A) (A)
                 (A) (A) (A) (A) (A) (A) (A) (A) (A) (A) (A) (A)
                 (A) (A) (A) (A) (A) (A) (A) (A) (A) (A) (A) (A)
                 (A) (A) (A) (A) (A) (A) (A) (A) (A) (A) (A) (A)
                 (A) (A) (A) (A) (A) (A) (A) (A) (A) (A) (A) (A)
                 (A) (A) (A) (A) (A) (A) (A) (A) (A) (A) (A) (A)
                 (A) (A) (A) (A) (A) (A) (A) (A) (A) (A) (A) (A)
                 (A) (A) (A) (A) (A) (A) (A) (A) (A) (A) (A) (A)
                 (A) (A) (A) (A) (A) (A) (A) (A) (A) (A) (A) (A)
                 (A) (A) (A) (A) (A) (A) (A) (A) (A) (A) (A) (A)
                 (A) (A) (A) (A) (A) (A) (A) (A) (A) (A) (A) (A)
                 (A) (A) (A) (A) (A) (A) (A) (A) (A) (A) (A) (A)
                 (A) (A) (A) (A) (A) (A) (A) (A) (A) (A) (A) (A)
                 (A) (A) (A) (A) (A) (A) (A) (A) (A) (A) (A) (A)
                 (A) (A) (A) (A) (A) (A) (A) (A) (A) (A) (A) (A)
                 (A) (A) (A) (A) (A) (A) (A) (A) (A) (A) (A) (A)
                 (A) (A) (A) (A) (A) (A) (A) (A) (A) (A) (A) (A)
                 (A) (A) (A) (A) (A) (A) (A) (A) (A) (A) (A) (A)
                 (A) (A) (A) (A) (A) (A) (A) (A) (A) (A) (A) (A)
                 (A) (A) (A) (A) (A) (A) (A) (A) (A) (A) (A) (A)
                 (A) (A) (A) (A) (A) (A) (A) (A) (A) (A) (A) (A)
                 (A) (A) (A) (A) (A) (A) (A) (A) (A) (A) (A) (A)
                 (A) (A) (A) (A) (A) (A) (A) (A) (A) (A) (A) (A)
                 (A) (A) (A) (A) (A) (A) (A) (A) (A) (A) (A) (A)
                 (A) (A) (A) (A) (A) (A) (A) (A) (A) (A) (A) (A)
                 (A) (A) (A) (A) (A) (A) (A) (A) (A) (A) (A) (A)
                 (A) (A) (A) (A) (A) (A) (A) (A) (A) (A) (A) (A)
                 (A)
 The electronic state is 1-A.
 Alpha  occ. eigenvalues --  -19.07246 -19.07164 -19.06728 -14.46999 -10.21780
 Alpha  occ. eigenvalues --  -10.19213 -10.15843 -10.15416 -10.14484 -10.13938
 Alpha  occ. eigenvalues --  -10.13012 -10.12895  -1.12013  -0.97518  -0.93726
 Alpha  occ. eigenvalues --   -0.79350  -0.73762  -0.72577  -0.68746  -0.65728
 Alpha  occ. eigenvalues --   -0.61594  -0.53551  -0.51131  -0.44908  -0.44066
 Alpha  occ. eigenvalues --   -0.43423  -0.42772  -0.42213  -0.40431  -0.40033
 Alpha  occ. eigenvalues --   -0.38130  -0.36621  -0.36604  -0.35730  -0.34692
 Alpha  occ. eigenvalues --   -0.33686  -0.32759  -0.32057  -0.30523  -0.29838
 Alpha  occ. eigenvalues --   -0.28866  -0.21293  -0.20285  -0.19857  -0.18014
 Alpha  occ. eigenvalues --   -0.17924  -0.10556
 Alpha virt. eigenvalues --    0.14976   0.21400   0.22946   0.24434   0.26296
 Alpha virt. eigenvalues --    0.27036   0.27667   0.28883   0.29211   0.30470
 Alpha virt. eigenvalues --    0.30953   0.32049   0.32485   0.32709   0.33301
 Alpha virt. eigenvalues --    0.34702   0.35641   0.36573   0.36964   0.37901
 Alpha virt. eigenvalues --    0.38589   0.39525   0.41318   0.41987   0.43094
 Alpha virt. eigenvalues --    0.44944   0.45471   0.45932   0.46296   0.47990
 Alpha virt. eigenvalues --    0.48675   0.49606   0.50082   0.51145   0.51798
 Alpha virt. eigenvalues --    0.53873   0.54704   0.56047   0.57606   0.57911
 Alpha virt. eigenvalues --    0.58453   0.59104   0.59510   0.60031   0.60946
 Alpha virt. eigenvalues --    0.61021   0.61805   0.62947   0.63846   0.64730
 Alpha virt. eigenvalues --    0.65061   0.65300   0.65597   0.66239   0.66345
 Alpha virt. eigenvalues --    0.67192   0.68235   0.68402   0.69716   0.69967
 Alpha virt. eigenvalues --    0.70371   0.71193   0.72187   0.73691   0.74714
 Alpha virt. eigenvalues --    0.75289   0.76422   0.77444   0.77967   0.78919
 Alpha virt. eigenvalues --    0.80083   0.80931   0.81146   0.82405   0.83767
 Alpha virt. eigenvalues --    0.84888   0.86076   0.87501   0.88062   0.88549
 Alpha virt. eigenvalues --    0.89178   0.90504   0.92672   0.94624   0.96012
 Alpha virt. eigenvalues --    0.96178   0.98796   0.99883   1.02030   1.04225
 Alpha virt. eigenvalues --    1.04780   1.05969   1.08682   1.09321   1.10184
 Alpha virt. eigenvalues --    1.11887   1.13704   1.14311   1.15435   1.17673
 Alpha virt. eigenvalues --    1.17970   1.19405   1.21259   1.22408   1.23710
 Alpha virt. eigenvalues --    1.24552   1.26318   1.27772   1.28423   1.28807
 Alpha virt. eigenvalues --    1.30302   1.31553   1.32471   1.34386   1.36244
 Alpha virt. eigenvalues --    1.38913   1.40033   1.40580   1.42900   1.47224
 Alpha virt. eigenvalues --    1.47361   1.47824   1.50034   1.52952   1.54856
 Alpha virt. eigenvalues --    1.57134   1.58624   1.58689   1.64880   1.65572
 Alpha virt. eigenvalues --    1.66648   1.69430   1.69783   1.70032   1.71411
 Alpha virt. eigenvalues --    1.71582   1.73153   1.74254   1.75650   1.76472
 Alpha virt. eigenvalues --    1.77785   1.78299   1.79083   1.79846   1.80794
 Alpha virt. eigenvalues --    1.81394   1.81817   1.82809   1.83341   1.83989
 Alpha virt. eigenvalues --    1.85156   1.87559   1.88279   1.89981   1.91912
 Alpha virt. eigenvalues --    1.93734   1.94401   1.95688   1.96650   1.97035
 Alpha virt. eigenvalues --    1.98562   1.99824   2.03683   2.04486   2.06918
 Alpha virt. eigenvalues --    2.07954   2.11324   2.12599   2.16350   2.17344
 Alpha virt. eigenvalues --    2.17970   2.18747   2.19865   2.20064   2.22973
 Alpha virt. eigenvalues --    2.23385   2.25510   2.27293   2.28181   2.30301
 Alpha virt. eigenvalues --    2.30729   2.31678   2.34279   2.34572   2.34687
 Alpha virt. eigenvalues --    2.35402   2.37053   2.38381   2.41073   2.42198
 Alpha virt. eigenvalues --    2.44926   2.47149   2.48963   2.49049   2.50943
 Alpha virt. eigenvalues --    2.51130   2.53433   2.55777   2.56333   2.57594
 Alpha virt. eigenvalues --    2.58263   2.58950   2.60464   2.61687   2.62808
 Alpha virt. eigenvalues --    2.63142   2.65468   2.67424   2.68585   2.69492
 Alpha virt. eigenvalues --    2.70792   2.72481   2.73255   2.73390   2.76575
 Alpha virt. eigenvalues --    2.77852   2.78629   2.79635   2.81539   2.83272
 Alpha virt. eigenvalues --    2.84193   2.84962   2.85927   2.87295   2.88567
 Alpha virt. eigenvalues --    2.88684   2.89254   2.90582   2.94974   2.96397
 Alpha virt. eigenvalues --    2.96917   2.97100   2.98476   2.99633   2.99932
 Alpha virt. eigenvalues --    3.01736   3.06555   3.06853   3.08191   3.10239
 Alpha virt. eigenvalues --    3.11725   3.13030   3.14793   3.15113   3.17567
 Alpha virt. eigenvalues --    3.18658   3.19412   3.22707   3.23706   3.25443
 Alpha virt. eigenvalues --    3.27043   3.27682   3.29717   3.31053   3.32100
 Alpha virt. eigenvalues --    3.33597   3.34340   3.36038   3.37669   3.38456
 Alpha virt. eigenvalues --    3.39226   3.40401   3.40935   3.41559   3.43092
 Alpha virt. eigenvalues --    3.44305   3.45868   3.46478   3.47678   3.48469
 Alpha virt. eigenvalues --    3.49977   3.50978   3.52760   3.53194   3.53992
 Alpha virt. eigenvalues --    3.55043   3.56947   3.57364   3.58469   3.60303
 Alpha virt. eigenvalues --    3.61647   3.61992   3.63973   3.65417   3.66839
 Alpha virt. eigenvalues --    3.67948   3.69515   3.71426   3.72066   3.73264
 Alpha virt. eigenvalues --    3.74930   3.78815   3.79765   3.83891   3.86489
 Alpha virt. eigenvalues --    3.86897   3.88353   3.90209   3.92000   3.93548
 Alpha virt. eigenvalues --    3.94517   3.95469   3.99602   4.00237   4.02476
 Alpha virt. eigenvalues --    4.05002   4.06153   4.07029   4.10429   4.12346
 Alpha virt. eigenvalues --    4.13671   4.15840   4.17720   4.20313   4.24454
 Alpha virt. eigenvalues --    4.26364   4.28222   4.30014   4.32387   4.34000
 Alpha virt. eigenvalues --    4.35137   4.38477   4.40051   4.41047   4.44056
 Alpha virt. eigenvalues --    4.45866   4.49919   4.52829   4.53531   4.55585
 Alpha virt. eigenvalues --    4.58506   4.59777   4.63887   4.65026   4.67265
 Alpha virt. eigenvalues --    4.70869   4.74048   4.77304   4.80344   4.81180
 Alpha virt. eigenvalues --    4.82604   4.85359   4.87829   4.91074   4.93418
 Alpha virt. eigenvalues --    4.95980   4.99392   5.00131   5.01446   5.04907
 Alpha virt. eigenvalues --    5.16381   5.20396   5.26056   5.30037   5.31746
 Alpha virt. eigenvalues --    5.35728   5.40808   5.42041   5.43216   5.44466
 Alpha virt. eigenvalues --    5.44643   5.45663   5.50858   5.51977   5.55331
 Alpha virt. eigenvalues --    5.61748   5.65214   5.67840   5.82575   5.87155
 Alpha virt. eigenvalues --    5.90824   5.94365   5.99807   6.19785   6.34985
 Alpha virt. eigenvalues --    6.52655   6.55601   6.57290   6.61317   6.65954
 Alpha virt. eigenvalues --    6.66114   6.67429   6.68339   6.81031   6.85687
 Alpha virt. eigenvalues --    6.93908   7.07963   7.11891   7.12737   7.16957
 Alpha virt. eigenvalues --    7.31582   7.35355   7.38384   7.47721   7.50255
 Alpha virt. eigenvalues --    7.71566   7.78845  22.60777  22.67869  22.69261
 Alpha virt. eigenvalues --   22.75195  22.87829  22.90832  23.25804  23.51234
 Alpha virt. eigenvalues --   32.60291  44.23047  44.27143  44.36960
          Condensed to atoms (all electrons):
               1          2          3          4          5          6
     1  C    5.414680   0.161259  -0.009077   0.029614   0.048628  -0.005891
     2  C    0.161259   6.575421  -0.011896  -0.211711  -0.080727   0.009900
     3  C   -0.009077  -0.011896   4.883280   0.667708  -0.005795  -0.006877
     4  O    0.029614  -0.211711   0.667708   8.076062  -0.000303  -0.000713
     5  C    0.048628  -0.080727  -0.005795  -0.000303   5.526335   0.356653
     6  H   -0.005891   0.009900  -0.006877  -0.000713   0.356653   0.592567
     7  H    0.004890  -0.026211   0.009169   0.007929   0.387411  -0.032129
     8  N    0.004369   0.000680   0.000624   0.000186   0.398321  -0.026825
     9  O   -0.023609   0.000457   0.000180  -0.000002  -0.078295  -0.004370
    10  O    0.011531   0.005215  -0.000448  -0.000004  -0.095666   0.009355
    11  C    0.265431  -0.072708   0.007820  -0.000249  -0.032064  -0.003504
    12  C    0.186835   0.007611  -0.045862  -0.054543  -0.011502   0.006584
    13  C   -0.075250   0.216832  -0.018344   0.008129   0.002181   0.000329
    14  C    0.022228  -0.294509   0.394178  -0.098492   0.000502  -0.000593
    15  H   -0.032557   0.017276   0.000079  -0.000002  -0.031556   0.000147
    16  H   -0.062229   0.003129   0.000862   0.000042   0.008864  -0.000374
    17  H   -0.011771  -0.028181   0.000440   0.000011  -0.016197   0.000646
    18  H   -0.045615   0.014373  -0.000080   0.002066  -0.030300   0.001501
    19  H   -0.025010  -0.019635   0.000011   0.028775  -0.008800  -0.000026
    20  H   -0.034324  -0.009167   0.001370   0.001506   0.011231  -0.000210
    21  H    0.008446  -0.055792  -0.011146   0.000255   0.000474  -0.000132
    22  H    0.020270  -0.078908  -0.005217   0.000154   0.015966  -0.000506
    23  H   -0.020728  -0.044839  -0.000522  -0.000223  -0.003036   0.000374
    24  H   -0.000489   0.016647  -0.041034   0.013983  -0.000117   0.000021
    25  H   -0.002445   0.020065  -0.037037   0.003120   0.000337   0.000047
    26  H   -0.001406   0.044507  -0.063077   0.003744  -0.000054   0.000018
               7          8          9         10         11         12
     1  C    0.004890   0.004369  -0.023609   0.011531   0.265431   0.186835
     2  C   -0.026211   0.000680   0.000457   0.005215  -0.072708   0.007611
     3  C    0.009169   0.000624   0.000180  -0.000448   0.007820  -0.045862
     4  O    0.007929   0.000186  -0.000002  -0.000004  -0.000249  -0.054543
     5  C    0.387411   0.398321  -0.078295  -0.095666  -0.032064  -0.011502
     6  H   -0.032129  -0.026825  -0.004370   0.009355  -0.003504   0.006584
     7  H    0.540697  -0.031404   0.008232  -0.004659   0.006597  -0.010162
     8  N   -0.031404   5.585314   0.310552   0.316429  -0.003852  -0.000316
     9  O    0.008232   0.310552   8.352116  -0.107360   0.030226   0.001808
    10  O   -0.004659   0.316429  -0.107360   8.351115  -0.018641  -0.027152
    11  C    0.006597  -0.003852   0.030226  -0.018641   5.050889  -0.046002
    12  C   -0.010162  -0.000316   0.001808  -0.027152  -0.046002   5.176362
    13  C   -0.000977   0.000261  -0.002048   0.000021  -0.000317   0.011899
    14  C    0.000661   0.000026  -0.000001  -0.000003  -0.000839  -0.006642
    15  H    0.000007   0.003370  -0.004467   0.016473   0.402933  -0.012952
    16  H   -0.000170   0.000127   0.000316  -0.000447   0.412303   0.000503
    17  H    0.000776  -0.002187   0.009048   0.001235   0.406783   0.006854
    18  H   -0.001908  -0.001584   0.000620   0.035008  -0.020088   0.415870
    19  H    0.000877   0.000461  -0.000005   0.000119   0.006648   0.410116
    20  H    0.000194  -0.000163  -0.000124   0.000007   0.004101   0.362495
    21  H    0.000024  -0.000005   0.000005   0.000000   0.000675  -0.000240
    22  H    0.000686  -0.000418   0.000624  -0.000038  -0.011916  -0.000089
    23  H   -0.000089  -0.000041   0.000142   0.000007   0.004414   0.000290
    24  H   -0.000037  -0.000000   0.000000   0.000000   0.000027   0.000217
    25  H   -0.000083  -0.000006   0.000000   0.000000   0.000055   0.000018
    26  H   -0.000011  -0.000000  -0.000000   0.000000  -0.000035   0.000629
              13         14         15         16         17         18
     1  C   -0.075250   0.022228  -0.032557  -0.062229  -0.011771  -0.045615
     2  C    0.216832  -0.294509   0.017276   0.003129  -0.028181   0.014373
     3  C   -0.018344   0.394178   0.000079   0.000862   0.000440  -0.000080
     4  O    0.008129  -0.098492  -0.000002   0.000042   0.000011   0.002066
     5  C    0.002181   0.000502  -0.031556   0.008864  -0.016197  -0.030300
     6  H    0.000329  -0.000593   0.000147  -0.000374   0.000646   0.001501
     7  H   -0.000977   0.000661   0.000007  -0.000170   0.000776  -0.001908
     8  N    0.000261   0.000026   0.003370   0.000127  -0.002187  -0.001584
     9  O   -0.002048  -0.000001  -0.004467   0.000316   0.009048   0.000620
    10  O    0.000021  -0.000003   0.016473  -0.000447   0.001235   0.035008
    11  C   -0.000317  -0.000839   0.402933   0.412303   0.406783  -0.020088
    12  C    0.011899  -0.006642  -0.012952   0.000503   0.006854   0.415870
    13  C    5.024283   0.006298  -0.000328  -0.006953   0.007975   0.000034
    14  C    0.006298   5.231349   0.000035   0.000108  -0.000004   0.000147
    15  H   -0.000328   0.000035   0.528823  -0.030815  -0.009674   0.008020
    16  H   -0.006953   0.000108  -0.030815   0.599867  -0.032128  -0.000663
    17  H    0.007975  -0.000004  -0.009674  -0.032128   0.534291   0.000139
    18  H    0.000034   0.000147   0.008020  -0.000663   0.000139   0.515093
    19  H   -0.000349   0.002846   0.001012  -0.000358  -0.000144  -0.012737
    20  H    0.000414   0.000230  -0.003728   0.001664  -0.000399  -0.029631
    21  H    0.424765   0.005662  -0.000042  -0.000072   0.000926  -0.000002
    22  H    0.410176  -0.002073  -0.000687  -0.000713   0.000585  -0.000086
    23  H    0.423252  -0.001786   0.000552   0.004321  -0.007505  -0.000037
    24  H    0.000314   0.382579   0.000000   0.000000   0.000000  -0.000002
    25  H   -0.010188   0.377713  -0.000002  -0.000006  -0.000004  -0.000003
    26  H   -0.008499   0.375606  -0.000000  -0.000002  -0.000014  -0.000010
              19         20         21         22         23         24
     1  C   -0.025010  -0.034324   0.008446   0.020270  -0.020728  -0.000489
     2  C   -0.019635  -0.009167  -0.055792  -0.078908  -0.044839   0.016647
     3  C    0.000011   0.001370  -0.011146  -0.005217  -0.000522  -0.041034
     4  O    0.028775   0.001506   0.000255   0.000154  -0.000223   0.013983
     5  C   -0.008800   0.011231   0.000474   0.015966  -0.003036  -0.000117
     6  H   -0.000026  -0.000210  -0.000132  -0.000506   0.000374   0.000021
     7  H    0.000877   0.000194   0.000024   0.000686  -0.000089  -0.000037
     8  N    0.000461  -0.000163  -0.000005  -0.000418  -0.000041  -0.000000
     9  O   -0.000005  -0.000124   0.000005   0.000624   0.000142   0.000000
    10  O    0.000119   0.000007   0.000000  -0.000038   0.000007   0.000000
    11  C    0.006648   0.004101   0.000675  -0.011916   0.004414   0.000027
    12  C    0.410116   0.362495  -0.000240  -0.000089   0.000290   0.000217
    13  C   -0.000349   0.000414   0.424765   0.410176   0.423252   0.000314
    14  C    0.002846   0.000230   0.005662  -0.002073  -0.001786   0.382579
    15  H    0.001012  -0.003728  -0.000042  -0.000687   0.000552   0.000000
    16  H   -0.000358   0.001664  -0.000072  -0.000713   0.004321   0.000000
    17  H   -0.000144  -0.000399   0.000926   0.000585  -0.007505   0.000000
    18  H   -0.012737  -0.029631  -0.000002  -0.000086  -0.000037  -0.000002
    19  H    0.480262  -0.018445  -0.000033  -0.000100   0.000041  -0.000088
    20  H   -0.018445   0.640165   0.000043  -0.000033   0.000084  -0.000016
    21  H   -0.000033   0.000043   0.584038  -0.019987  -0.028984   0.000919
    22  H   -0.000100  -0.000033  -0.019987   0.604809  -0.048352  -0.000141
    23  H    0.000041   0.000084  -0.028984  -0.048352   0.620755   0.000100
    24  H   -0.000088  -0.000016   0.000919  -0.000141   0.000100   0.548194
    25  H   -0.000100  -0.000001  -0.004477   0.001845   0.000069  -0.013916
    26  H   -0.000215  -0.000021  -0.005382   0.000482   0.000865  -0.015897
              25         26
     1  C   -0.002445  -0.001406
     2  C    0.020065   0.044507
     3  C   -0.037037  -0.063077
     4  O    0.003120   0.003744
     5  C    0.000337  -0.000054
     6  H    0.000047   0.000018
     7  H   -0.000083  -0.000011
     8  N   -0.000006  -0.000000
     9  O    0.000000  -0.000000
    10  O    0.000000   0.000000
    11  C    0.000055  -0.000035
    12  C    0.000018   0.000629
    13  C   -0.010188  -0.008499
    14  C    0.377713   0.375606
    15  H   -0.000002  -0.000000
    16  H   -0.000006  -0.000002
    17  H   -0.000004  -0.000014
    18  H   -0.000003  -0.000010
    19  H   -0.000100  -0.000215
    20  H   -0.000001  -0.000021
    21  H   -0.004477  -0.005382
    22  H    0.001845   0.000482
    23  H    0.000069   0.000865
    24  H   -0.013916  -0.015897
    25  H    0.589835  -0.033381
    26  H   -0.033381   0.598426
 Mulliken charges:
               1
     1  C    0.172220
     2  C   -0.159090
     3  C    0.290690
     4  O   -0.477044
     5  C   -0.362491
     6  H    0.104008
     7  H    0.139691
     8  N    0.446080
     9  O   -0.494044
    10  O   -0.492099
    11  C   -0.388686
    12  C   -0.372629
    13  C   -0.413910
    14  C   -0.395226
    15  H    0.148085
    16  H    0.102824
    17  H    0.138500
    18  H    0.149876
    19  H    0.154874
    20  H    0.072760
    21  H    0.100063
    22  H    0.113668
    23  H    0.100876
    24  H    0.108739
    25  H    0.108544
    26  H    0.103725
 Sum of Mulliken charges =  -1.00000
 Mulliken charges with hydrogens summed into heavy atoms:
               1
     1  C    0.172220
     2  C   -0.159090
     3  C    0.290690
     4  O   -0.477044
     5  C   -0.118791
     8  N    0.446080
     9  O   -0.494044
    10  O   -0.492099
    11  C    0.000722
    12  C    0.004880
    13  C   -0.099304
    14  C   -0.074220
 APT charges:
               1
     1  C    0.103716
     2  C    0.020124
     3  C    0.132781
     4  O   -0.252729
     5  C   -0.705542
     6  H    0.234765
     7  H    0.290204
     8  N   -0.084291
     9  O   -0.157234
    10  O   -0.179519
    11  C   -1.171795
    12  C   -1.041296
    13  C   -1.258212
    14  C   -1.293744
    15  H    0.360574
    16  H    0.408069
    17  H    0.301433
    18  H    0.314096
    19  H    0.310769
    20  H    0.388565
    21  H    0.495558
    22  H    0.194163
    23  H    0.358289
    24  H    0.563745
    25  H    0.286185
    26  H    0.381325
 Sum of APT charges =  -1.00000
 APT charges with hydrogens summed into heavy atoms:
               1
     1  C    0.103716
     2  C    0.020124
     3  C    0.132781
     4  O   -0.252729
     5  C   -0.180573
     8  N   -0.084291
     9  O   -0.157234
    10  O   -0.179519
    11  C   -0.101720
    12  C   -0.027866
    13  C   -0.210202
    14  C   -0.062489
 Electronic spatial extent (au):  <R**2>=           2481.0167
 Charge=             -1.0000 electrons
 Dipole moment (field-independent basis, Debye):
    X=              5.6951    Y=              2.7797    Z=              1.3573  Tot=              6.4810
 Quadrupole moment (field-independent basis, Debye-Ang):
   XX=           -119.4958   YY=            -89.5602   ZZ=            -78.1363
   XY=              6.1348   XZ=             -3.6374   YZ=              0.3233
 Traceless Quadrupole moment (field-independent basis, Debye-Ang):
   XX=            -23.7651   YY=              6.1706   ZZ=             17.5945
   XY=              6.1348   XZ=             -3.6374   YZ=              0.3233
 Octapole moment (field-independent basis, Debye-Ang**2):
  XXX=             72.1428  YYY=              2.0769  ZZZ=             -5.3500  XYY=             -7.7134
  XXY=             11.6932  XXZ=             14.6903  XZZ=             -3.7892  YZZ=             -2.2823
  YYZ=              1.4086  XYZ=             -7.7739
 Hexadecapole moment (field-independent basis, Debye-Ang**3):
 XXXX=          -2644.0514 YYYY=           -701.2964 ZZZZ=           -457.3701 XXXY=              9.5947
 XXXZ=            -21.0113 YYYX=              6.7738 YYYZ=             -1.4260 ZZZX=              5.9902
 ZZZY=              0.2221 XXYY=           -563.2862 XXZZ=           -452.7926 YYZZ=           -189.6854
 XXYZ=             10.9359 YYXZ=              2.9049 ZZXY=              3.7013
 N-N= 7.449530455434D+02 E-N=-2.892129059431D+03  KE= 5.909919583725D+02
  Exact polarizability:   0.000   0.000   0.000   0.000   0.000   0.000
 Approx polarizability: 206.131  -2.858 148.988   3.846  -2.626 125.368
   1 Symmetry operations used in ECPInt.
 ECPInt:  NShTT=   17766 NPrTT=   52956 LenC2=   16847 LenP2D=   38253.
 LDataN:  DoStor=T MaxTD1= 8 Len=  415
 Calling FoFJK, ICntrl=    100147 FMM=F ISym2X=0 I1Cent= 0 IOpClX= 0 NMat=1 NMatS=1 NMatT=0.
 ***** Axes restored to original set *****
 -------------------------------------------------------------------
 Center     Atomic                   Forces (Hartrees/Bohr)
 Number     Number              X              Y              Z
 -------------------------------------------------------------------
      1        6           0.000009874    0.000005580   -0.000006089
      2        6          -0.000009442   -0.000000328    0.000009692
      3        6           0.000005236    0.000003102    0.000001703
      4        8          -0.000006948   -0.000002207    0.000004564
      5        6          -0.000000321    0.000001400    0.000005025
      6        1          -0.000002687   -0.000004699    0.000002061
      7        1          -0.000002577    0.000001185    0.000000727
      8        7           0.000006478    0.000004177   -0.000008422
      9        8           0.000001964   -0.000001608    0.000002101
     10        8           0.000002339   -0.000004273    0.000004670
     11        6           0.000000825    0.000002657   -0.000002316
     12        6          -0.000004034   -0.000001514   -0.000000602
     13        6           0.000006215   -0.000001209   -0.000013461
     14        6          -0.000005712   -0.000008186   -0.000009716
     15        1          -0.000002233    0.000000358   -0.000001861
     16        1          -0.000001695   -0.000002510   -0.000001106
     17        1          -0.000001876   -0.000001562    0.000003600
     18        1          -0.000006459    0.000004249   -0.000004959
     19        1           0.000006487    0.000000511   -0.000004594
     20        1           0.000002158   -0.000003308   -0.000000610
     21        1          -0.000009819    0.000004177    0.000005793
     22        1           0.000002768    0.000001063    0.000005974
     23        1           0.000005419   -0.000002664    0.000000884
     24        1          -0.000000183    0.000000242    0.000002282
     25        1           0.000001221    0.000000004   -0.000001872
     26        1           0.000003000    0.000005366    0.000006532
 -------------------------------------------------------------------
 Cartesian Forces:  Max     0.000013461 RMS     0.000004652
 FormGI is forming the generalized inverse of G from B-inverse, IUseBI=4.

 GradGradGradGradGradGradGradGradGradGradGradGradGradGradGradGradGradGrad
 Berny optimization.
 Internal  Forces:  Max     0.000026386 RMS     0.000005312
 Search for a saddle point.
 Step number   1 out of a maximum of   70
 All quantities printed in internal units (Hartrees-Bohrs-Radians)
 Swapping is turned off.
 Second derivative matrix not updated -- analytic derivatives used.
 ITU=  0
     Eigenvalues ---   -0.01819   0.00103   0.00128   0.00242   0.00299
     Eigenvalues ---    0.00312   0.00993   0.01185   0.01447   0.01487
     Eigenvalues ---    0.02445   0.02852   0.03535   0.03827   0.04401
     Eigenvalues ---    0.04524   0.04537   0.04715   0.05124   0.05617
     Eigenvalues ---    0.05768   0.05831   0.05894   0.06133   0.06784
     Eigenvalues ---    0.08139   0.08684   0.10796   0.11479   0.11584
     Eigenvalues ---    0.11852   0.12130   0.12466   0.12937   0.13455
     Eigenvalues ---    0.13923   0.14737   0.14866   0.15317   0.15612
     Eigenvalues ---    0.15824   0.17054   0.19350   0.23762   0.24910
     Eigenvalues ---    0.26372   0.27645   0.30117   0.31509   0.32063
     Eigenvalues ---    0.32141   0.32523   0.32725   0.32981   0.33458
     Eigenvalues ---    0.33567   0.34116   0.34165   0.34598   0.34862
     Eigenvalues ---    0.35007   0.35189   0.35919   0.37272   0.37616
     Eigenvalues ---    0.43769   0.47584   0.50615   0.51434   0.64410
     Eigenvalues ---    0.67582   0.73658
 Eigenvectors required to have negative eigenvalues:
                          R2        D5        D55       D54       D24
   1                   -0.80788   0.15379   0.13910   0.13280  -0.12445
                          D6        A15       D23       D22       A4
   1                    0.12412   0.12359  -0.12198  -0.11502   0.11401
 RFO step:  Lambda0=7.658526591D-13 Lambda=-3.60331843D-08.
 Linear search not attempted -- option 19 set.
 Iteration  1 RMS(Cart)=  0.00043403 RMS(Int)=  0.00000019
 Iteration  2 RMS(Cart)=  0.00000019 RMS(Int)=  0.00000000
 Variable       Old X    -DE/DX   Delta X   Delta X   Delta X     New X
                                 (Linear)    (Quad)   (Total)
    R1        2.64307  -0.00001   0.00000  -0.00002  -0.00002   2.64305
    R2        4.27992  -0.00001   0.00000  -0.00005  -0.00005   4.27987
    R3        2.85058   0.00000   0.00000   0.00000   0.00000   2.85058
    R4        2.84664  -0.00000   0.00000   0.00001   0.00001   2.84665
    R5        2.71781  -0.00000   0.00000  -0.00001  -0.00001   2.71780
    R6        2.85824   0.00000   0.00000   0.00001   0.00001   2.85825
    R7        2.33424   0.00000   0.00000   0.00001   0.00001   2.33425
    R8        2.89928  -0.00000   0.00000  -0.00001  -0.00001   2.89927
    R9        2.03711  -0.00001   0.00000  -0.00001  -0.00001   2.03709
   R10        2.03606  -0.00000   0.00000  -0.00001  -0.00001   2.03605
   R11        2.57398  -0.00001   0.00000  -0.00002  -0.00002   2.57396
   R12        2.36539  -0.00000   0.00000  -0.00001  -0.00001   2.36539
   R13        2.36804   0.00000   0.00000   0.00002   0.00002   2.36806
   R14        2.05879   0.00000   0.00000   0.00000   0.00000   2.05879
   R15        2.07321  -0.00000   0.00000  -0.00001  -0.00001   2.07321
   R16        2.05657  -0.00000   0.00000  -0.00001  -0.00001   2.05656
   R17        2.06290   0.00001   0.00000   0.00001   0.00001   2.06291
   R18        2.04756   0.00001   0.00000   0.00001   0.00001   2.04757
   R19        2.07453   0.00000   0.00000   0.00000   0.00000   2.07453
   R20        2.05513  -0.00001   0.00000  -0.00003  -0.00003   2.05511
   R21        2.07544  -0.00001   0.00000  -0.00004  -0.00004   2.07540
   R22        2.06969  -0.00000   0.00000   0.00002   0.00002   2.06972
   R23        2.05718  -0.00000   0.00000  -0.00000  -0.00000   2.05718
   R24        2.06654   0.00000   0.00000   0.00001   0.00001   2.06655
   R25        2.06387   0.00001   0.00000   0.00002   0.00002   2.06389
    A1        1.79169   0.00001   0.00000   0.00005   0.00005   1.79174
    A2        2.06640   0.00000   0.00000   0.00002   0.00002   2.06641
    A3        2.15298  -0.00000   0.00000   0.00001   0.00001   2.15299
    A4        1.67455   0.00000   0.00000   0.00005   0.00005   1.67459
    A5        1.67922  -0.00001   0.00000  -0.00016  -0.00016   1.67906
    A6        1.95291   0.00000   0.00000   0.00000   0.00000   1.95291
    A7        2.14512  -0.00003   0.00000  -0.00001  -0.00001   2.14511
    A8        2.04392   0.00001   0.00000   0.00001   0.00001   2.04393
    A9        2.08409   0.00001   0.00000   0.00003   0.00003   2.08412
   A10        2.20024  -0.00002   0.00000  -0.00001  -0.00001   2.20023
   A11        2.06433   0.00001   0.00000   0.00002   0.00002   2.06435
   A12        2.01859   0.00000   0.00000  -0.00001  -0.00001   2.01858
   A13        1.72619   0.00001   0.00000   0.00009   0.00009   1.72628
   A14        1.64108   0.00000   0.00000  -0.00001  -0.00001   1.64107
   A15        1.87802  -0.00001   0.00000  -0.00005  -0.00005   1.87797
   A16        2.11237  -0.00000   0.00000  -0.00000  -0.00000   2.11237
   A17        1.99473   0.00000   0.00000   0.00001   0.00001   1.99474
   A18        2.01972  -0.00000   0.00000  -0.00003  -0.00003   2.01969
   A19        2.08673   0.00000   0.00000   0.00001   0.00001   2.08675
   A20        2.08543  -0.00001   0.00000  -0.00002  -0.00002   2.08541
   A21        2.10754   0.00000   0.00000   0.00000   0.00000   2.10754
   A22        1.93198  -0.00000   0.00000   0.00001   0.00001   1.93199
   A23        1.90295  -0.00000   0.00000  -0.00003  -0.00003   1.90292
   A24        1.97302   0.00000   0.00000   0.00005   0.00005   1.97307
   A25        1.88815   0.00000   0.00000  -0.00000  -0.00000   1.88814
   A26        1.87520  -0.00000   0.00000  -0.00002  -0.00002   1.87518
   A27        1.89030  -0.00000   0.00000  -0.00001  -0.00001   1.89029
   A28        1.91903  -0.00001   0.00000  -0.00006  -0.00006   1.91898
   A29        1.95547  -0.00001   0.00000  -0.00006  -0.00006   1.95541
   A30        1.88060   0.00001   0.00000   0.00006   0.00006   1.88065
   A31        1.92557   0.00001   0.00000   0.00006   0.00006   1.92562
   A32        1.88191   0.00000   0.00000   0.00006   0.00006   1.88197
   A33        1.89914  -0.00000   0.00000  -0.00005  -0.00005   1.89909
   A34        1.96743   0.00001   0.00000   0.00006   0.00006   1.96748
   A35        1.93983   0.00000   0.00000  -0.00001  -0.00001   1.93982
   A36        1.96559  -0.00001   0.00000  -0.00001  -0.00001   1.96557
   A37        1.86276  -0.00000   0.00000  -0.00002  -0.00002   1.86274
   A38        1.86638  -0.00000   0.00000  -0.00002  -0.00002   1.86636
   A39        1.85482   0.00000   0.00000   0.00000   0.00000   1.85482
   A40        1.87566  -0.00000   0.00000  -0.00001  -0.00001   1.87565
   A41        1.93697   0.00000   0.00000  -0.00002  -0.00002   1.93695
   A42        1.96600  -0.00000   0.00000   0.00003   0.00003   1.96604
   A43        1.89455   0.00000   0.00000  -0.00001  -0.00001   1.89455
   A44        1.91158  -0.00000   0.00000  -0.00001  -0.00001   1.91157
   A45        1.87810   0.00000   0.00000   0.00001   0.00001   1.87811
    D1       -1.45024   0.00000   0.00000  -0.00016  -0.00016  -1.45040
    D2        1.53835   0.00001   0.00000   0.00001   0.00001   1.53836
    D3        3.01767  -0.00000   0.00000  -0.00026  -0.00026   3.01741
    D4       -0.27693   0.00000   0.00000  -0.00008  -0.00008  -0.27701
    D5        0.40498  -0.00001   0.00000  -0.00033  -0.00033   0.40466
    D6       -2.88962  -0.00000   0.00000  -0.00015  -0.00015  -2.88977
    D7       -0.63747  -0.00000   0.00000  -0.00003  -0.00003  -0.63749
    D8        1.49676  -0.00000   0.00000  -0.00001  -0.00001   1.49675
    D9       -2.71637  -0.00001   0.00000  -0.00006  -0.00006  -2.71643
   D10        1.47249   0.00000   0.00000   0.00002   0.00002   1.47251
   D11       -2.67647   0.00000   0.00000   0.00003   0.00003  -2.67643
   D12       -0.60641  -0.00000   0.00000  -0.00001  -0.00001  -0.60642
   D13       -2.84095   0.00000   0.00000   0.00000   0.00000  -2.84095
   D14       -0.70673   0.00000   0.00000   0.00002   0.00002  -0.70671
   D15        1.36333  -0.00000   0.00000  -0.00003  -0.00003   1.36330
   D16        3.01839   0.00000   0.00000  -0.00018  -0.00018   3.01821
   D17       -1.18974   0.00000   0.00000  -0.00019  -0.00019  -1.18993
   D18        0.91370   0.00000   0.00000  -0.00019  -0.00019   0.91350
   D19        1.13586  -0.00001   0.00000  -0.00027  -0.00027   1.13559
   D20       -3.07226  -0.00001   0.00000  -0.00029  -0.00029  -3.07255
   D21       -0.96882  -0.00001   0.00000  -0.00029  -0.00029  -0.96911
   D22       -0.59471   0.00000   0.00000  -0.00011  -0.00011  -0.59482
   D23        1.48035   0.00000   0.00000  -0.00013  -0.00013   1.48022
   D24       -2.69940   0.00000   0.00000  -0.00013  -0.00013  -2.69953
   D25       -2.68961   0.00000   0.00000  -0.00020  -0.00020  -2.68981
   D26       -0.54163   0.00000   0.00000  -0.00021  -0.00021  -0.54184
   D27        1.54687   0.00000   0.00000  -0.00027  -0.00027   1.54659
   D28       -0.77666   0.00000   0.00000  -0.00025  -0.00025  -0.77691
   D29        1.37132  -0.00000   0.00000  -0.00026  -0.00026   1.37106
   D30       -2.82337  -0.00000   0.00000  -0.00032  -0.00032  -2.82369
   D31        0.95079  -0.00000   0.00000  -0.00027  -0.00027   0.95052
   D32        3.09877  -0.00000   0.00000  -0.00028  -0.00028   3.09849
   D33       -1.09592  -0.00000   0.00000  -0.00034  -0.00034  -1.09626
   D34        0.09411  -0.00000   0.00000  -0.00002  -0.00002   0.09408
   D35       -3.05606  -0.00000   0.00000  -0.00001  -0.00001  -3.05608
   D36       -2.89111  -0.00000   0.00000  -0.00020  -0.00020  -2.89131
   D37        0.24191  -0.00000   0.00000  -0.00019  -0.00019   0.24171
   D38       -3.13194   0.00000   0.00000   0.00112   0.00112  -3.13082
   D39       -1.04150   0.00001   0.00000   0.00113   0.00113  -1.04038
   D40        1.03752   0.00000   0.00000   0.00112   0.00112   1.03864
   D41       -0.13777  -0.00000   0.00000   0.00129   0.00129  -0.13649
   D42        1.95267   0.00000   0.00000   0.00129   0.00129   1.95396
   D43       -2.25149   0.00000   0.00000   0.00128   0.00128  -2.25021
   D44        2.96119  -0.00000   0.00000  -0.00047  -0.00047   2.96072
   D45       -1.25298  -0.00000   0.00000  -0.00050  -0.00050  -1.25348
   D46        0.85415  -0.00000   0.00000  -0.00048  -0.00048   0.85367
   D47       -0.18809  -0.00000   0.00000  -0.00046  -0.00046  -0.18855
   D48        1.88092  -0.00000   0.00000  -0.00049  -0.00049   1.88043
   D49       -2.29513  -0.00000   0.00000  -0.00047  -0.00047  -2.29560
   D50        1.62499   0.00000   0.00000   0.00004   0.00004   1.62502
   D51       -1.42767   0.00000   0.00000   0.00008   0.00008  -1.42759
   D52       -0.27294  -0.00000   0.00000  -0.00005  -0.00005  -0.27298
   D53        2.95759   0.00000   0.00000   0.00000   0.00000   2.95759
   D54       -2.85058  -0.00000   0.00000  -0.00001  -0.00001  -2.85059
   D55        0.37994   0.00000   0.00000   0.00004   0.00004   0.37998
         Item               Value     Threshold  Converged?
 Maximum Force            0.000026     0.000450     YES
 RMS     Force            0.000005     0.000300     YES
 Maximum Displacement     0.002072     0.001800     NO 
 RMS     Displacement     0.000434     0.001200     YES
 Predicted change in Energy=-1.801621D-08
 GradGradGradGradGradGradGradGradGradGradGradGradGradGradGradGradGradGrad

                          Input orientation:                          
 ---------------------------------------------------------------------
 Center     Atomic      Atomic             Coordinates (Angstroms)
 Number     Number       Type             X           Y           Z
 ---------------------------------------------------------------------
      1          6           0        0.062686    0.057112    0.788723
      2          6           0        1.288202    0.455384    0.244945
      3          6           0        2.272937   -0.479136   -0.229799
      4          8           0        2.135042   -1.704201   -0.307215
      5          6           0       -1.211962   -0.278354   -1.053042
      6          1           0       -0.833392    0.523274   -1.666332
      7          1           0       -0.875539   -1.292129   -1.194252
      8          7           0       -2.515098   -0.134000   -0.683908
      9          8           0       -3.070338    0.981628   -0.801628
     10          8           0       -3.112672   -1.093207   -0.142481
     11          6           0       -0.825345    1.110033    1.403721
     12          6           0       -0.171072   -1.300600    1.397948
     13          6           0        1.476721    1.932324   -0.021190
     14          6           0        3.626787    0.068001   -0.700530
     15          1           0       -1.792792    0.688003    1.673669
     16          1           0       -0.350519    1.489512    2.317040
     17          1           0       -1.010661    1.952047    0.739618
     18          1           0       -1.229201   -1.560966    1.332639
     19          1           0        0.434749   -2.066570    0.928584
     20          1           0        0.095332   -1.240744    2.461246
     21          1           0        2.448410    2.160819   -0.452814
     22          1           0        0.721963    2.307480   -0.725297
     23          1           0        1.379526    2.539438    0.885193
     24          1           0        4.291664   -0.782353   -0.841647
     25          1           0        3.526531    0.593278   -1.654433
     26          1           0        4.070822    0.763786    0.014692
 ---------------------------------------------------------------------
                    Distance matrix (angstroms):
                    1          2          3          4          5
     1  C    0.000000
     2  C    1.398644   0.000000
     3  C    2.492020   1.438198   0.000000
     4  O    2.932229   2.384497   1.235230   0.000000
     5  C    2.264810   2.911006   3.586442   3.713722   0.000000
     6  H    2.654724   2.856352   3.566193   3.952271   1.077983
     7  H    2.575443   3.131591   3.391759   3.165476   1.077433
     8  N    2.974918   3.959195   4.821889   4.922522   1.362080
     9  O    3.633151   4.513216   5.568789   5.878274   2.259275
    10  O    3.503323   4.681444   5.421208   5.285731   2.259603
    11  C    1.508464   2.497681   3.846193   4.428443   2.848294
    12  C    1.506380   2.557807   3.049188   2.896314   2.852331
    13  C    2.484326   1.512521   2.548061   3.706685   3.630541
    14  C    3.862747   2.552052   1.534228   2.349617   4.863920
    15  H    2.150337   3.404098   4.638487   5.007436   2.950620
    16  H    2.135008   2.836971   4.152648   4.823332   3.901909
    17  H    2.178362   2.787377   4.199099   4.935530   2.868595
    18  H    2.140793   3.403830   3.984538   3.745366   2.708665
    19  H    2.160560   2.748817   2.690862   2.132957   3.136274
    20  H    2.117270   3.035092   3.544537   3.469810   3.871102
    21  H    3.414481   2.177489   2.655162   3.880436   4.439388
    22  H    2.791247   2.166162   3.227424   4.273778   3.245616
    23  H    2.811639   2.182095   3.339637   4.472260   4.290981
    24  H    4.609454   3.425414   2.131093   2.405502   5.530696
    25  H    4.272554   2.938838   2.179713   3.004938   4.855382
    26  H    4.142905   2.809111   2.199322   3.153066   5.489437
                    6          7          8          9         10
     6  H    0.000000
     7  H    1.876253   0.000000
     8  N    2.055553   2.071199   0.000000
     9  O    2.441665   3.184536   1.251709   0.000000
    10  O    3.182806   2.480031   1.253123   2.177431   0.000000
    11  C    3.125632   3.538696   2.959912   3.149611   3.532262
    12  C    3.626982   2.686233   3.345077   4.295631   3.327002
    13  C    3.166786   4.160084   4.543513   4.710483   5.498280
    14  C    4.586202   4.729129   6.145229   6.759913   6.861497
    15  H    3.478964   3.603782   2.599150   2.800970   2.865867
    16  H    4.127231   4.510249   4.040654   4.169108   4.511006
    17  H    2.803820   3.779257   2.939617   2.749441   3.803961
    18  H    3.673493   2.565643   2.785000   3.796007   2.437671
    19  H    3.879312   2.612095   3.877699   4.956892   3.831293
    20  H    4.583796   3.782578   4.234527   5.060311   4.134302
    21  H    3.863212   4.849869   5.473209   5.654092   6.450630
    22  H    2.547168   3.965996   4.054763   4.018116   5.158369
    23  H    3.933472   4.908189   4.977695   5.007338   5.867885
    24  H    5.352660   5.204248   6.839390   7.570489   7.443767
    25  H    4.360502   4.810899   6.162153   6.663091   7.014931
    26  H    5.189894   5.491340   6.683442   7.190967   7.421301
                   11         12         13         14         15
    11  C    0.000000
    12  C    2.497850   0.000000
    13  C    2.829495   3.896277   0.000000
    14  C    5.033407   4.549771   2.925746   0.000000
    15  H    1.089465   2.580802   3.887235   5.949207   0.000000
    16  H    1.097094   2.943069   3.000368   5.190895   1.771016
    17  H    1.088284   3.423159   2.601209   5.208606   1.755559
    18  H    2.702293   1.091646   4.621465   5.510710   2.343459
    19  H    3.450275   1.083528   4.240157   4.171273   3.620050
    20  H    2.737181   1.097796   4.259001   4.917400   2.811647
    21  H    3.907473   4.718944   1.087515   2.414503   4.967787
    22  H    2.891498   4.280645   1.098257   3.667954   3.834284
    23  H    2.678344   4.172908   1.095247   3.697662   3.756742
    24  H    5.899711   5.019998   3.995814   1.088612   6.746063
    25  H    5.343985   5.155199   2.943170   1.093572   6.275383
    26  H    5.101151   4.916172   2.845370   1.092166   6.094252
                   16         17         18         19         20
    16  H    0.000000
    17  H    1.771436   0.000000
    18  H    3.323635   3.569411   0.000000
    19  H    3.897458   4.274833   1.785391   0.000000
    20  H    2.770177   3.792247   1.769373   1.773766   0.000000
    21  H    3.994590   3.664785   5.528503   4.881999   5.059581
    22  H    3.327927   2.296583   4.796563   4.685097   4.810054
    23  H    2.479029   2.465607   4.880469   4.702105   4.292188
    24  H    6.057106   6.171871   5.984455   4.433816   5.359891
    25  H    5.622042   5.306962   6.015011   4.827617   5.663531
    26  H    5.037433   5.268676   5.935629   4.697567   5.080186
                   21         22         23         24         25
    21  H    0.000000
    22  H    1.753961   0.000000
    23  H    1.753889   1.754957   0.000000
    24  H    3.494430   4.722645   4.743081   0.000000
    25  H    2.250204   3.415756   3.853164   1.771556   0.000000
    26  H    2.191457   3.761041   3.339728   1.781189   1.763889
                   26
    26  H    0.000000
 Stoichiometry    C8H14NO3(1-)
 Framework group  C1[X(C8H14NO3)]
 Deg. of freedom    72
 Full point group                 C1      NOp   1
 Largest Abelian subgroup         C1      NOp   1
 Largest concise Abelian subgroup C1      NOp   1
                         Standard orientation:                         
 ---------------------------------------------------------------------
 Center     Atomic      Atomic             Coordinates (Angstroms)
 Number     Number       Type             X           Y           Z
 ---------------------------------------------------------------------
      1          6           0        0.062674    0.057120    0.788674
      2          6           0        1.288195    0.455376    0.244895
      3          6           0        2.272919   -0.479155   -0.229849
      4          8           0        2.135008   -1.704219   -0.307264
      5          6           0       -1.211978   -0.278330   -1.053092
      6          1           0       -0.833398    0.523293   -1.666382
      7          1           0       -0.875568   -1.292110   -1.194301
      8          7           0       -2.515112   -0.133960   -0.683958
      9          8           0       -3.070339    0.981674   -0.801678
     10          8           0       -3.112698   -1.093160   -0.142530
     11          6           0       -0.825344    1.110052    1.403672
     12          6           0       -0.171101   -1.300589    1.397899
     13          6           0        1.476732    1.932314   -0.021240
     14          6           0        3.626776    0.067964   -0.700579
     15          1           0       -1.792796    0.688034    1.673619
     16          1           0       -0.350513    1.489525    2.316990
     17          1           0       -1.010649    1.952068    0.739568
     18          1           0       -1.229233   -1.560943    1.332589
     19          1           0        0.434710   -2.066567    0.928534
     20          1           0        0.095304   -1.240737    2.461196
     21          1           0        2.448424    2.160797   -0.452863
     22          1           0        0.721979    2.307480   -0.725346
     23          1           0        1.379545    2.539429    0.885144
     24          1           0        4.291642   -0.782398   -0.841696
     25          1           0        3.526526    0.593243   -1.654483
     26          1           0        4.070818    0.763744    0.014643
 ---------------------------------------------------------------------
 Rotational constants (GHZ):           1.5684526           0.5358137           0.4930840
 Standard basis: def2TZVP (5D, 7F)
 There are   516 symmetry adapted cartesian basis functions of A   symmetry.
 There are   456 symmetry adapted basis functions of A   symmetry.
   456 basis functions,   724 primitive gaussians,   516 cartesian basis functions
    47 alpha electrons       47 beta electrons
       nuclear repulsion energy       744.9765520023 Hartrees.
 NAtoms=   26 NActive=   26 NUniq=   26 SFac= 1.00D+00 NAtFMM=   60 NAOKFM=F Big=F
 Integral buffers will be    131072 words long.
 Raffenetti 2 integral format.
 Two-electron integral symmetry is turned on.
 Nuclear repulsion after empirical dispersion term =      744.9565230251 Hartrees.
 One-electron integrals computed using PRISM.
   1 Symmetry operations used in ECPInt.
 ECPInt:  NShTT=   17766 NPrTT=   52956 LenC2=   16847 LenP2D=   38253.
 LDataN:  DoStor=T MaxTD1= 6 Len=  172
 NBasis=   456 RedAO= T EigKep=  5.71D-05  NBF=   456
 NBsUse=   456 1.00D-06 EigRej= -1.00D+00 NBFU=   456
 Initial guess from the checkpoint file:  "/beegfs/scratch/user/d/ehef20/Gau-166997.chk"
 B after Tr=     0.000000   -0.000000   -0.000000
         Rot=    1.000000    0.000016    0.000003   -0.000001 Ang=   0.00 deg.
 Requested convergence on RMS density matrix=1.00D-08 within 128 cycles.
[...]
 0145249,0.00004857,-0.00010561,0.00018344,-0.00014768,0.00007241,-0.00
 005592,0.00007430,-0.00049249,0.00062046,-0.00048080,-0.00023800,-0.00
 013566,0.00032018,-0.00001674,-0.00043856,-0.00035371,-0.00032937,0.00
 028718,-0.00139488,0.00120543,-0.13791707,0.11567901,0.06805774,-0.000
 11936,0.00002254,-0.00009561,0.00031385,0.00037065,0.00036176,0.000333
 56,0.00005923,-0.00015796,-0.00009439,0.00047278,0.00017922,0.00049914
 ,-0.00029854,-0.00010152,-0.01294015,0.02116350,0.01320600,0.14759764,
 0.01941311,-0.01956507,-0.01542258,-0.00184737,0.00163644,0.00068228,-
 0.00088688,-0.00423375,0.00007204,0.00391940,0.00229648,-0.00266504,-0
 .00068915,0.00003160,-0.00034294,-0.00006048,0.00009262,-0.00004697,0.
 00024273,0.00017480,0.00044579,0.00031015,-0.00054568,-0.00018069,-0.0
 0024670,0.00058101,0.00011692,-0.00024696,0.00007872,-0.00024610,-0.00
 101200,-0.00451198,0.00378303,0.10946958,-0.19081894,-0.08578454,0.000
 19134,-0.00006638,-0.00002297,0.00017903,0.00019865,0.00017276,-0.0001
 6154,0.00016525,0.00011478,-0.00017618,0.00003198,-0.00011108,0.000749
 72,-0.00127681,-0.00085926,-0.00485066,0.00777000,0.00544517,-0.123359
 26,0.20769918,-0.01185238,0.01027848,0.00676757,0.00160675,-0.00156608
 ,-0.00081751,-0.00043232,0.00445538,0.00062210,0.00376322,-0.00297771,
 -0.00405693,0.00107016,0.00043994,0.00073582,-0.00002018,-0.00007464,-
 0.00008134,-0.00034978,-0.00002963,-0.00029881,-0.00127234,-0.00027954
 ,0.00074051,0.00036907,-0.00035050,-0.00013536,0.00037229,0.00054816,-
 0.00061724,0.00068097,0.00297198,-0.00029662,0.06805247,-0.09217979,-0
 .10170291,0.00000729,-0.00005170,-0.00006202,-0.00007814,-0.00039503,0
 .00016106,0.00016044,-0.00009596,-0.00024792,0.00000621,0.00052284,0.0
 0019416,-0.00023800,0.00084214,0.00041319,-0.00262783,0.00464182,0.001
 67553,-0.07655808,0.09456985,0.10931988,-0.00070023,-0.00153572,0.0067
 3227,-0.00013924,-0.00042028,-0.00042639,0.00035335,0.00007214,0.00028
 198,-0.00115792,-0.00004467,-0.00048458,-0.00062575,0.00017088,-0.0010
 4659,-0.00010016,0.00005134,-0.00019354,0.00006667,0.00018811,0.000224
 03,0.00112329,-0.00099495,-0.00017044,-0.00043431,0.00112018,0.0002528
 3,0.00010637,0.00014445,-0.00015033,0.00053987,0.00043263,0.00035592,-
 0.05812762,-0.00185072,-0.05887349,-0.00021061,-0.00005698,-0.00033370
 ,0.00006237,-0.00002679,0.00038316,-0.00029246,-0.00007374,-0.00026608
 ,0.00007570,0.00024238,-0.00005942,-0.00020145,-0.00012757,0.00013889,
 -0.00561909,-0.00137016,-0.03062041,0.00594826,-0.00094556,0.01744158,
 0.05939132,0.00493642,-0.00008908,0.02773978,0.00041002,-0.00042928,0.
 00008668,0.00084942,-0.00102841,0.00038579,0.00109508,0.00094108,-0.00
 021812,0.00227488,-0.00145184,0.00208145,0.00016011,0.00022364,0.00035
 276,-0.00011055,-0.00003297,0.00000705,-0.00287977,-0.00033256,0.00123
 613,0.00068633,-0.00064325,-0.00018762,0.00046933,0.00108283,-0.000959
 72,-0.00014450,0.00093140,-0.00042255,-0.00246469,-0.04691469,-0.01508
 850,-0.00040973,-0.00040633,-0.00086805,-0.00003033,0.00011963,-0.0002
 3469,0.00017154,0.00010241,-0.00001614,0.00000206,-0.00048171,-0.00004
 712,-0.00025716,0.00053245,0.00000273,-0.00058400,-0.00141975,-0.00750
 217,-0.00908553,-0.00007001,-0.02097404,0.00517387,0.04954263,-0.00226
 951,0.00038136,-0.01584800,-0.00103693,0.00075444,0.00152469,-0.000244
 83,-0.00107658,-0.00043894,0.00137277,0.00048108,-0.00007854,-0.001041
 43,0.00128442,-0.00105438,-0.00038557,0.00003437,-0.00046028,0.0003035
 3,0.00024420,0.00072342,0.00248957,-0.00035132,-0.00090626,-0.00074766
 ,0.00110645,0.00034758,-0.00062680,-0.00048036,0.00045532,0.00017262,-
 0.00107362,0.00060504,-0.05992881,-0.01703992,-0.27906250,0.00035274,0
 .00021493,0.00025067,0.00002890,0.00007225,-0.00021039,-0.00015405,0.0
 0009236,-0.00016165,0.00002947,0.00058623,0.00035977,0.00005852,0.0001
 1267,0.00016847,-0.00027523,-0.00051838,-0.00177424,-0.00505771,0.0002
 8549,-0.01233679,0.06685636,0.01466436,0.30789216,0.00003939,-0.000555
 83,0.00044930,-0.00178998,0.00008850,-0.00048906,-0.00142848,0.0006161
 6,0.00097181,0.00053891,-0.00071397,-0.00037111,-0.00004660,-0.0000111
 7,-0.00011668,0.00004764,0.00008639,0.00018875,-0.00002412,-0.00003873
 ,0.00005231,0.00030077,0.00007258,-0.00007919,-0.00013159,0.00000640,-
 0.00004949,-0.00015685,-0.00015737,0.00006979,-0.00045489,-0.00006410,
 -0.00033423,-0.00009192,0.00013584,0.00001386,-0.26564782,-0.05170802,
 0.09759014,-0.00235747,0.00341525,0.00070522,0.00006557,-0.00016928,0.
 00020327,0.00007303,0.00002806,0.00004539,0.00031639,-0.00037895,0.000
 16362,0.00001656,-0.00004899,0.00006318,0.00001326,-0.00002640,-0.0000
 0108,-0.00003061,-0.00004589,0.00004962,0.29305225,-0.00007150,-0.0070
 9699,0.00135904,-0.02790641,-0.00265590,0.01088792,-0.00301426,0.00157
 665,0.00117575,0.00062189,-0.00018172,-0.00015916,0.00018462,0.0000713
 9,0.00006958,-0.00000747,-0.00000289,-0.00001377,0.00001164,0.00001310
 ,0.00005171,0.00008051,-0.00016974,0.00003406,-0.00004364,0.00016081,0
 .00002250,-0.00000730,0.00005659,-0.00005401,0.00100921,-0.00049586,-0
 .00028376,-0.00135041,0.00014272,0.00036145,-0.04693987,-0.05739227,0.
 02038782,0.00147738,-0.00089889,-0.00051155,-0.00008325,0.00031701,0.0
 0001100,0.00007491,-0.00008086,0.00017431,0.00000076,0.00029762,-0.000
 47982,-0.00008700,-0.00041945,0.00028631,-0.00001675,0.00006577,-0.000
 00426,-0.00004111,-0.00010694,0.00013328,0.04938948,0.06373808,-0.0001
 5820,0.00097135,-0.00020511,0.00386386,0.00030545,-0.00341231,0.000961
 97,-0.00058621,0.00013774,-0.00033500,0.00028555,0.00004263,0.00007367
 ,0.00001443,0.00002218,0.00004712,0.00007742,0.00014013,-0.00004246,-0
 .00003544,0.00001689,-0.00003194,0.00005962,-0.00004411,0.00000902,-0.
 00006444,0.00004462,-0.00001093,-0.00004352,0.00007068,0.00016735,0.00
 035440,-0.00007334,0.00046532,0.00006926,0.00034983,0.09709101,0.02216
 772,-0.08936725,0.00107555,-0.00104327,0.00055126,0.00006329,0.0001280
 5,0.00012429,-0.00009317,-0.00006589,0.00042786,-0.00000731,-0.0000402
 7,-0.00028432,0.00000205,0.00016248,-0.00009051,-0.00000255,0.00001935
 ,-0.00001064,-0.00000921,-0.00009769,0.00002553,-0.10875728,-0.0225009
 4,0.09311724,-0.00198103,-0.00054015,0.00104910,0.00535696,0.00218148,
 0.00361126,-0.00009757,-0.00065116,-0.00076462,0.00012034,0.00048472,0
 .00002441,0.00174523,0.00031975,0.00038484,-0.00016210,-0.00001654,-0.
 00066080,-0.00003683,0.00001095,0.00021767,-0.00098377,0.00058001,0.00
 084240,0.00034872,-0.00060942,0.00012806,0.00022151,0.00026673,-0.0006
 3376,0.00010961,-0.00113006,0.00076019,0.00009888,-0.00000976,-0.00014
 409,-0.16599648,0.05269524,-0.11041745,-0.00045518,0.00032827,0.000018
 77,0.00013626,-0.00017029,0.00013382,0.00006399,0.00025993,-0.00019255
 ,-0.00062253,-0.00006203,0.00061883,-0.00001602,-0.00000503,0.00000165
 ,-0.00007234,-0.00004634,0.00001255,-0.00000821,-0.00007877,-0.0000510
 7,-0.01936233,0.00844174,-0.01961481,0.18006420,0.00558833,0.00065431,
 0.00033684,0.01921724,-0.01766607,0.01977323,-0.00190654,-0.00046595,0
 .00486074,-0.00001386,-0.00223043,-0.00226054,-0.00220899,-0.00050587,
 -0.00080200,-0.00056579,-0.00024393,-0.00076364,0.00032277,0.00019992,
 0.00014529,0.00137939,-0.00022504,-0.00067411,-0.00037108,0.00090414,-
 0.00006398,-0.00018277,-0.00022307,0.00004491,-0.00007853,0.00018861,0
 .00048152,-0.00061721,-0.00026142,-0.00075212,0.05696074,-0.06763503,0
 .05218429,-0.00014360,-0.00003313,-0.00000246,0.00001057,0.00005438,-0
 .00019203,-0.00018416,0.00019950,-0.00006604,-0.00049953,0.00030065,0.
 00048341,-0.00004006,-0.00017048,-0.00003544,0.00009651,0.00004670,-0.
 00002462,0.00001139,0.00013525,-0.00011488,-0.00387477,0.00110508,-0.0
 0462067,-0.06122571,0.08081750,-0.00306983,0.00025459,0.00012177,0.000
 09350,0.00600542,-0.00078358,0.00112951,-0.00091941,-0.00160737,-0.000
 11115,0.00098283,0.00027997,0.00233304,-0.00005935,0.00080764,-0.00015
 542,0.00007333,-0.00026594,-0.00015895,-0.00007157,0.00002113,-0.00157
 235,0.00110561,0.00111302,0.00045245,-0.00126299,-0.00009015,0.0003641
 4,0.00024162,-0.00059797,-0.00069371,0.00053635,-0.00039775,0.00035328
 ,-0.00002664,0.00000560,-0.11088709,0.04893888,-0.14784340,0.00012878,
 -0.00023903,0.00025483,0.00010578,-0.00039947,0.00038508,-0.00020968,-
 0.00007149,0.00017258,0.00135044,-0.00010441,-0.00049545,0.00002368,0.
 00010807,0.00003102,-0.00004672,-0.00008697,0.00004085,-0.00001602,0.0
 0000984,0.00000465,0.00945824,-0.00508418,0.00964075,0.12218576,-0.057
 35229,0.15934523,-0.00003514,-0.00092864,-0.00025434,0.00029197,-0.000
 52587,-0.00241178,-0.00045040,0.00030171,0.00050826,0.00015111,-0.0000
 2587,-0.00010212,0.00022759,0.00021128,-0.00006626,0.00009595,0.000114
 56,0.00003594,-0.00005392,-0.00003871,0.00013622,0.00022849,-0.0000598
 2,-0.00004612,-0.00012634,0.00008413,0.00013253,-0.00006877,-0.0000035
 1,0.00005335,-0.00083046,-0.00072137,-0.00064884,0.00011327,0.00018580
 ,0.00046562,-0.04826102,0.01132283,0.02117097,-0.00016234,0.00049627,0
 .00016927,0.00010194,0.00010359,0.00003576,-0.00011357,-0.00017967,0.0
 0066784,-0.00141324,-0.00054718,-0.00025611,0.00003519,-0.00002454,-0.
 00007779,-0.00002375,0.00004823,-0.00001732,-0.00001041,-0.00017313,0.
 00006719,-0.00123560,0.01586646,0.02526718,0.00137379,-0.01198014,-0.0
 2086367,0.05020909,0.00604884,0.00058247,-0.00025699,0.00200829,-0.021
 31563,-0.02069701,-0.00458544,-0.00307877,-0.00103510,0.00199343,-0.00
 197674,0.00058089,-0.00232276,-0.00012539,-0.00092234,0.00003078,0.000
 04910,0.00005442,0.00016825,0.00006506,0.00025713,0.00216140,-0.000470
 04,-0.00100722,-0.00072106,0.00107909,0.00007870,-0.00063230,-0.000582
 71,0.00050308,-0.00063517,0.00050942,-0.00070106,0.00030711,0.00023607
 ,0.00060706,0.01163778,-0.11509307,-0.11573657,-0.00002575,-0.00015171
 ,0.00000942,0.00013854,0.00031147,0.00010877,-0.00049006,-0.00010282,0
 .00081044,-0.00059137,0.00018706,-0.00004564,-0.00004824,0.00005468,-0
 .00013095,0.00001646,0.00008273,-0.00009616,-0.00008843,-0.00026557,0.
 00014784,0.00037886,0.00297942,0.00574022,-0.00131738,0.00477693,0.007
 66051,-0.01366537,0.13202994,0.00218882,-0.00053770,0.00004452,-0.0010
 6219,0.00257921,0.01048264,-0.00028599,0.00117815,-0.00015180,-0.00027
 286,-0.00018972,-0.00014335,-0.00008681,0.00021109,-0.00008041,0.00010
 507,0.00006191,0.00005883,-0.00002079,-0.00002461,0.00011160,0.0005113
 8,-0.00008414,0.00013671,-0.00026491,0.00023784,-0.00001514,-0.0003181
 0,-0.00016688,-0.00001948,0.00137913,0.00086759,0.00148201,-0.00043551
 ,-0.00000517,-0.00021332,0.01995514,-0.11301137,-0.22509147,0.00023511
 ,-0.00015244,0.00001834,-0.00012047,0.00053336,-0.00022938,-0.00023324
 ,-0.00032359,-0.00021614,-0.00004787,0.00040062,-0.00106918,-0.0000988
 8,-0.00009284,0.00002707,0.00001442,0.00004027,-0.00003555,0.00000661,
 0.00005374,-0.00003464,0.00028846,-0.00516035,-0.01035800,0.00224300,-
 0.01053780,-0.01980163,-0.02353452,0.12424766,0.24506357,0.00006696,0.
 00149654,0.00076514,-0.00365815,-0.00372307,0.00163314,-0.02083651,0.0
 2685956,0.00439095,0.00524303,-0.00026063,-0.00134397,-0.00041810,0.00
 001717,-0.00018101,0.00003479,0.00000504,0.00004518,-0.00000203,0.0000
 0181,0.00004202,0.00042816,-0.00004336,-0.00021792,-0.00012821,0.00014
 100,-0.00000185,-0.00016501,-0.00017050,0.00011024,-0.00046379,-0.0003
 1168,0.00008936,0.00002446,0.00009421,-0.00010610,0.00010141,-0.000974
 35,0.00030543,-0.14582541,0.12916656,0.01863069,-0.00011890,0.00010990
 ,0.00008536,0.00003143,-0.00000382,0.00000389,0.00001437,-0.00000971,-
 0.00002299,0.00000011,-0.00005478,-0.00001790,-0.00004420,-0.00006549,
 0.00005740,0.00000137,-0.00002627,-0.00000205,0.00022041,-0.00016900,-
 0.00018954,0.00008611,0.00005777,-0.00001825,-0.00006389,0.00007623,-0
 .00000592,0.15874275,-0.00069341,0.00014845,0.00008946,-0.00067454,-0.
 00119889,0.00040616,-0.00876910,0.00628217,0.00164475,-0.00164472,0.00
 137143,0.00070545,0.00036965,0.00001219,0.00019338,-0.00003148,-0.0000
 1858,-0.00004991,-0.00000688,0.00000920,-0.00003649,-0.00040231,0.0000
 2571,0.00017142,0.00012946,-0.00012242,0.00000069,0.00015673,0.0001531
 5,-0.00010331,-0.00000223,-0.00000878,0.00004779,0.00005226,0.00006626
 ,-0.00000407,-0.00057469,-0.00057700,0.00037765,0.13412715,-0.21633487
 ,-0.02894191,0.00000201,0.00004681,0.00000168,-0.00001074,-0.00000954,
 0.00002069,-0.00003451,0.00002875,-0.00001348,0.00001117,0.00001425,0.
 00000163,-0.00000930,0.00001994,0.00000349,-0.00000078,0.00000735,-0.0
 0001484,0.00075736,0.00035763,-0.00039600,0.00026551,0.00008353,-0.000
 13225,0.00017194,0.00006698,-0.00009075,-0.14196750,0.23298951,0.00051
 430,-0.00041865,0.00006987,0.00147045,0.00134640,0.00051627,0.00841210
 ,-0.00922778,-0.00306163,-0.00222238,-0.00037687,-0.00003208,0.0000482
 5,0.00001146,-0.00000119,0.00000164,-0.00000091,-0.00001645,0.00000187
 ,0.00000030,0.00001412,-0.00004857,-0.00000724,0.00002637,0.00001146,-
 0.00001229,0.00000295,0.00000821,0.00001986,-0.00002707,0.00003675,0.0
 0004806,-0.00011830,-0.00001370,-0.00003180,0.00005930,0.00033189,0.00
 037367,0.00047254,0.01895663,-0.02801881,-0.05158741,0.00003054,-0.000
 02176,-0.00004721,0.00000889,-0.00001472,-0.00002871,-0.00000673,0.000
 02761,0.00000297,0.00000102,0.00001393,-0.00000712,0.00001217,0.000020
 33,-0.00000597,-0.00000285,0.00001008,-0.00000882,-0.00026527,0.000076
 17,-0.00021669,0.00010922,0.00001299,-0.00012187,-0.00015367,-0.000058
 21,0.00005074,-0.02372048,0.02960480,0.05143217,0.00105660,0.00022749,
 -0.00074346,-0.00295708,0.00025748,-0.00087194,0.00905247,-0.01314163,
 0.02581080,-0.00385467,-0.00127826,-0.00262699,-0.00110397,-0.00015105
 ,-0.00027153,-0.00001219,0.00008755,0.00001619,0.00006387,0.00000977,0
 .00011014,0.00082221,-0.00014656,-0.00050676,-0.00025021,0.00038424,0.
 00004876,-0.00022103,-0.00022217,0.00020760,0.00023176,0.00006591,0.00
 020437,-0.00001259,-0.00007613,-0.00004847,-0.00003060,0.00060674,0.00
 021031,-0.04577689,0.01192625,-0.01795487,0.00003483,-0.00001691,-0.00
 004685,-0.00005582,0.00004067,0.00003764,-0.00001103,-0.00000421,-0.00
 004540,0.00002410,-0.00004180,-0.00006002,-0.00002077,-0.00000754,-0.0
 0007140,-0.00006826,0.00006994,0.00003595,-0.00069018,0.00111717,0.001
 04326,-0.00031200,0.00016136,-0.00005345,0.00013154,0.00000735,-0.0001
 6194,-0.00217683,0.00767861,-0.01772716,0.04796194,-0.00017883,-0.0001
 0179,0.00015457,0.00020119,0.00007776,-0.00052239,0.00321088,-0.006764
 47,0.00834940,-0.00413900,-0.00089617,-0.00140506,-0.00003694,-0.00002
 148,0.00000464,0.00000020,0.00004658,0.00002825,0.00003929,-0.00000933
 ,0.00005613,0.00001820,-0.00001299,-0.00006839,-0.00002943,0.00002506,
 0.00000196,0.00000070,0.00000617,0.00000573,0.00003091,0.00001594,0.00
 000463,-0.00002200,-0.00003507,-0.00002011,-0.00006767,-0.00012304,-0.
 00078448,0.01509897,-0.10403700,0.11348142,-0.00000288,-0.00000820,0.0
 0002434,0.00001371,0.00001290,0.00000975,0.00001424,-0.00000925,0.0000
 0696,0.00000132,-0.00002532,0.00001222,0.00005568,0.00002237,-0.000086
 35,-0.00002952,0.00005051,0.00002058,0.00093214,-0.00076512,-0.0010872
 3,0.00004485,0.00009392,0.00004688,-0.00005719,0.00010001,0.00010577,0
 .00120297,-0.01031103,0.02264553,-0.01478993,0.11243138,-0.00108338,-0
 .00056823,0.00009002,0.00255013,0.00069839,0.00014505,-0.00407189,0.00
 391987,-0.00702056,0.00164169,-0.00031807,0.00026675,0.00097418,0.0000
 9837,0.00023012,-0.00002363,-0.00005107,-0.00005385,-0.00007857,-0.000
 01651,-0.00008943,-0.00075451,0.00021965,0.00047516,0.00025756,-0.0003
 9688,-0.00003092,0.00021259,0.00017142,-0.00019176,-0.00007012,-0.0000
 1967,-0.00003826,0.00004758,0.00003644,0.00007798,0.00096463,0.0006314
 7,0.00021222,-0.02293205,0.11085213,-0.24619853,0.00000666,-0.00003952
 ,0.00002393,0.00000479,-0.00000731,-0.00005029,0.00007104,-0.00001526,
 0.00003939,0.00000629,0.00000522,0.00003112,-0.00002917,-0.00002455,0.
 00003616,0.00000118,-0.00003939,0.00000093,-0.00039992,-0.00106168,-0.
 00032319,-0.00012878,-0.00015079,-0.00003680,-0.00043380,-0.00009817,0
 .00018283,0.00010331,-0.00283802,0.00495682,0.02487612,-0.12189944,0.2
 6549219,0.00160081,0.00051568,0.00058353,-0.00127343,-0.00005998,0.003
 46514,-0.00254316,-0.01507403,-0.02394739,-0.00416443,-0.00403554,0.00
 436331,-0.00062194,-0.00007933,-0.00017725,0.00000380,0.00001259,-0.00
 001069,0.00005721,0.00000788,0.00003780,0.00063236,-0.00017132,-0.0002
 4305,-0.00021851,0.00029560,0.00000102,-0.00021036,-0.00010711,0.00008
 795,-0.00017095,0.00002335,-0.00031049,-0.00019363,-0.00008025,-0.0000
 5832,-0.00078851,0.00037672,0.00006618,-0.09176601,-0.06570282,-0.0719
 7623,-0.00000917,0.00005020,-0.00004502,0.00003607,-0.00002701,0.00002
 451,-0.00010755,0.00004971,0.00000586,-0.00005291,0.00008757,0.0000259
 2,0.00017448,0.00010523,-0.00008155,0.00005778,-0.00000867,0.00000440,
 -0.00123574,0.00146222,-0.00087827,0.00038079,0.00008667,-0.00012233,-
 0.00011107,0.00015000,0.00002287,0.00890567,0.01110037,0.01420541,-0.0
 0182520,-0.00151186,-0.00171193,0.09344362,-0.00014619,0.00000920,0.00
 021458,0.00046231,0.00012577,0.00078423,-0.00013879,-0.00847789,-0.007
 60450,-0.00452285,-0.00165648,0.00284961,0.00001520,-0.00001298,-0.000
 01487,-0.00000942,0.00001292,-0.00000966,0.00003715,0.00000284,0.00002
 102,0.00012260,-0.00001732,0.00001034,-0.00006256,0.00005645,-0.000005
 69,-0.00005454,-0.00001297,-0.00001086,-0.00006439,-0.00005876,-0.0000
 5326,-0.00008095,-0.00004363,0.00000868,0.00083925,-0.00033030,0.00067
 282,-0.06669131,-0.15250490,-0.11559970,-0.00001446,0.00000672,0.00000
 067,0.00000867,0.00001483,0.00000190,0.00001167,0.00004467,-0.00002289
 ,-0.00004077,0.00005587,0.00004842,0.00011445,0.00009438,-0.00008806,-
 0.00000038,0.00000321,0.00005355,0.00188644,-0.00061524,0.00022626,-0.
 00001655,0.00010001,-0.00015388,0.00002423,0.00005203,-0.00013985,-0.0
 1144860,-0.01310220,-0.01602212,0.00723567,0.01023765,0.01091163,0.072
 53411,0.16601613,-0.00031965,0.00017569,-0.00020608,-0.00019432,-0.000
 26580,-0.00014394,0.00424321,0.00619798,0.00797285,0.00103428,0.002349
 31,-0.00129636,0.00000927,0.00001120,0.00002578,-0.00000551,-0.0000286
 7,-0.00003972,0.00002314,0.00002866,0.00000252,0.00008580,-0.00002808,
 0.00002394,-0.00004185,0.00007494,0.00001234,-0.00001914,-0.00000017,0
 .00000371,0.00006930,-0.00003924,0.00015258,0.00008019,-0.00003478,-0.
 00000463,-0.00024107,-0.00073748,0.00087496,-0.07043721,-0.11236197,-0
 .15852315,-0.00000743,0.00002442,-0.00000480,-0.00002247,0.00001236,0.
 00002672,-0.00001317,0.00002858,-0.00004854,0.00000519,0.00000165,-0.0
 0002002,-0.00002329,0.00002564,-0.00000125,-0.00002177,0.00002540,0.00
 001720,0.00055031,0.00028257,-0.00032614,0.00026641,0.00009019,-0.0001
 8221,0.00015619,-0.00002071,-0.00019934,-0.00043412,-0.00064803,-0.002
 32360,-0.01141092,-0.01908531,-0.01822709,0.07666863,0.12392163,0.1724
 3425\\0.00000033,0.00000019,0.00000014,-0.00000025,0.,-0.00000010,0.00
 000002,0.00000016,-0.00000003,0.00000014,-0.00000002,0.00000022,-0.000
 00020,-0.00000036,0.00000010,-0.00000016,-0.00000046,0.00000004,0.,-0.
 00000034,0.00000039,0.00000009,-0.00000027,0.00000014,-0.00000011,-0.0
 0000046,0.00000016,0.00000004,-0.00000035,0.00000059,0.,0.00000016,-0.
 00000012,0.00000017,0.00000019,0.00000030,-0.00000017,0.00000009,-0.00
 000045,-0.00000003,0.00000001,-0.00000019,0.00000010,0.00000016,0.0000
 0006,0.00000006,0.00000035,-0.00000021,-0.00000006,0.,-0.00000021,0.00
 000022,0.00000012,0.00000046,0.00000015,0.00000017,0.00000047,0.000000
 26,0.00000042,0.00000030,-0.00000017,0.00000003,-0.00000048,-0.0000001
 6,-0.00000015,-0.00000036,-0.00000012,0.00000019,-0.00000053,0.0000000
 1,0.00000008,-0.00000005,-0.00000015,-0.00000011,-0.00000030,-0.000000
 03,0.00000020,-0.00000036\\\@


 TIMES HAVE CHANGED. IN THE BIBLE WHEN AN ASS
 SPOKE IT WAS CONSIDERED A MIRACLE.
 Job cpu time:       0 days  5 hours 20 minutes 25.9 seconds.
 Elapsed time:       0 days  0 hours 13 minutes 22.2 seconds.
 File lengths (MBytes):  RWF=    531 Int=      0 D2E=      0 Chk=     18 Scr=      1
 Normal termination of Gaussian 16 at Sun Dec 27 07:36:09 2020.
