Unloading slurm/anatra/current
  ERROR: No such file or directory on
    '/cm/local/modulefiles/slurm/anatra/current'
environment: line 0: unalias: gv: not found
environment: line 0: unalias: sl: not found
 Entering Gaussian System, Link 0=g16
 Initial command:
 /apps/gaussian/g16/C.01/g16/l1.exe "/local/jobs/447481/Gau-2580862.inp" -scrdir="/local/jobs/447481/"
 Entering Link 1 = /apps/gaussian/g16/C.01/g16/l1.exe PID=   2580865.
  
 Copyright (c) 1988-2019, Gaussian, Inc.  All Rights Reserved.
  
 This is part of the Gaussian(R) 16 program.  It is based on
 the Gaussian(R) 09 system (copyright 2009, Gaussian, Inc.),
 the Gaussian(R) 03 system (copyright 2003, Gaussian, Inc.),
 the Gaussian(R) 98 system (copyright 1998, Gaussian, Inc.),
 the Gaussian(R) 94 system (copyright 1995, Gaussian, Inc.),
 the Gaussian 92(TM) system (copyright 1992, Gaussian, Inc.),
 the Gaussian 90(TM) system (copyright 1990, Gaussian, Inc.),
 the Gaussian 88(TM) system (copyright 1988, Gaussian, Inc.),
 the Gaussian 86(TM) system (copyright 1986, Carnegie Mellon
 University), and the Gaussian 82(TM) system (copyright 1983,
 Carnegie Mellon University). Gaussian is a federally registered
 trademark of Gaussian, Inc.
  
 This software contains proprietary and confidential information,
 including trade secrets, belonging to Gaussian, Inc.
  
 This software is provided under written license and may be
 used, copied, transmitted, or stored only in accord with that
 written license.
  
 The following legend is applicable only to US Government
 contracts under FAR:
  
                    RESTRICTED RIGHTS LEGEND
  
 Use, reproduction and disclosure by the US Government is
 subject to restrictions as set forth in subparagraphs (a)
 and (c) of the Commercial Computer Software - Restricted
 Rights clause in FAR 52.227-19.
  
 Gaussian, Inc.
 340 Quinnipiac St., Bldg. 40, Wallingford CT 06492
  
  
 ---------------------------------------------------------------
 Warning -- This program may not be used in any manner that
 competes with the business of Gaussian, Inc. or will provide
 assistance to any competitor of Gaussian, Inc.  The licensee
 of this program is prohibited from giving any competitor of
 Gaussian, Inc. access to this program.  By using this program,
 the user acknowledges that Gaussian, Inc. is engaged in the
 business of creating and licensing software in the field of
 computational chemistry and represents and warrants to the
 licensee that it is not a competitor of Gaussian, Inc. and that
 it will not use this program in any manner prohibited above.
 ---------------------------------------------------------------
  

 Cite this work as:
 Gaussian 16, Revision C.01,
 M. J. Frisch, G. W. Trucks, H. B. Schlegel, G. E. Scuseria, 
 M. A. Robb, J. R. Cheeseman, G. Scalmani, V. Barone, 
 G. A. Petersson, H. Nakatsuji, X. Li, M. Caricato, A. V. Marenich, 
 J. Bloino, B. G. Janesko, R. Gomperts, B. Mennucci, H. P. Hratchian, 
 J. V. Ortiz, A. F. Izmaylov, J. L. Sonnenberg, D. Williams-Young, 
 F. Ding, F. Lipparini, F. Egidi, J. Goings, B. Peng, A. Petrone, 
 T. Henderson, D. Ranasinghe, V. G. Zakrzewski, J. Gao, N. Rega, 
 G. Zheng, W. Liang, M. Hada, M. Ehara, K. Toyota, R. Fukuda, 
 J. Hasegawa, M. Ishida, T. Nakajima, Y. Honda, O. Kitao, H. Nakai, 
 T. Vreven, K. Throssell, J. A. Montgomery, Jr., J. E. Peralta, 
 F. Ogliaro, M. J. Bearpark, J. J. Heyd, E. N. Brothers, K. N. Kudin, 
 V. N. Staroverov, T. A. Keith, R. Kobayashi, J. Normand, 
 K. Raghavachari, A. P. Rendell, J. C. Burant, S. S. Iyengar, 
 J. Tomasi, M. Cossi, J. M. Millam, M. Klene, C. Adamo, R. Cammi, 
 J. W. Ochterski, R. L. Martin, K. Morokuma, O. Farkas, 
 J. B. Foresman, and D. J. Fox, Gaussian, Inc., Wallingford CT, 2019.
 
 ******************************************
 Gaussian 16:  ES64L-G16RevC.01  3-Jul-2019
                31-May-2023 
 ******************************************
 %mem=4GB
 %nprocshared=1
 Will use up to    1 processors via shared memory.
 ----------------------------------------------------------------------
 # am1 opt=(calcfc,ts,noeigen,maxcycles=80,maxstep=3) freq=noraman scrf
 =(smd,solvent=water)
 ----------------------------------------------------------------------
 1/5=1,6=80,8=3,10=4,11=1,18=20,26=6,38=1/1,3;
 2/9=110,12=2,17=6,18=5,40=1/2;
 3/5=2,25=1,41=700000,70=32201,71=2,72=1,140=1/1,2,3;
 4/35=1/1;
 5/5=2,35=1,38=5,53=1/2;
 8/6=4,10=90,11=11/1;
 11/6=1,8=1,9=11,15=111,16=1/1,2,10;
 10/6=1,13=1/2;
 6/7=2,8=2,9=2,10=2,28=1/1;
 7/10=1,25=1/1,2,3,16;
 1/5=1,6=80,8=3,10=4,11=1,18=20,26=6/3(2);
 2/9=110/2;
 99//99;
 2/9=110/2;
 3/5=2,25=1,41=700000,70=32205,71=1,72=1,135=20/1,2,3;
 4/5=5,16=3,35=1/1;
 5/5=2,35=1,38=5,53=1/2;
 7//1,2,3,16;
 1/5=1,6=80,8=3,11=1,18=20,26=6/3(-5);
 2/9=110/2;
 6/7=2,8=2,9=2,10=2,19=2,28=1/1;
 99/9=1/99;
 ----------------------------------------------------------------------
 Generated by autodE on: 2022-05-25. E = -382.310449 Ha. Imaginary freq
 uency = -384.9 cm-1
 ----------------------------------------------------------------------
 Symbolic Z-matrix:
 Charge =  0 Multiplicity = 1
 C                    -2.85289  -1.04044   0.16192 
 C                    -1.93632  -0.19023  -0.68441 
 C                    -1.05976   1.05964   1.05961 
 N                     0.10902   0.74514   1.02536 
 C                     1.02539  -0.00053   0.41783 
 C                     1.45128  -1.31062   1.02693 
 C                     1.86112   0.64785  -0.5293 
 N                     2.54864   1.1414   -1.33529 
 C                    -0.80299  -0.6829   -1.27298 
 H                    -2.29328  -1.83749   0.67694 
 H                    -3.38537  -0.45038   0.924 
 H                    -3.62214  -1.52624  -0.46547 
 H                    -2.36751   0.73409  -1.08506 
 H                    -1.59988   1.73161   1.73772 
 H                     1.89158  -1.9533    0.25136 
 H                     0.57815  -1.82193   1.45768 
 H                     2.20398  -1.17084   1.82206 
 H                    -0.29327  -0.13586  -2.06902 
 H                    -0.46808  -1.70624  -1.08343 
 
 Add virtual bond connecting atoms C3         and C2         Dist= 4.38D+00.

 GradGradGradGradGradGradGradGradGradGradGradGradGradGradGradGradGradGrad
 Berny optimization.
 Initialization pass.
                           ----------------------------
                           !    Initial Parameters    !
                           ! (Angstroms and Degrees)  !
 --------------------------                            --------------------------
 ! Name  Definition              Value          Derivative Info.                !
 --------------------------------------------------------------------------------
 ! R1    R(1,2)                  1.5097         calculate D2E/DX2 analytically  !
 ! R2    R(1,10)                 1.1017         calculate D2E/DX2 analytically  !
 ! R3    R(1,11)                 1.1011         calculate D2E/DX2 analytically  !
 ! R4    R(1,12)                 1.1052         calculate D2E/DX2 analytically  !
 ! R5    R(2,3)                  2.3178         calculate D2E/DX2 analytically  !
 ! R6    R(2,9)                  1.3688         calculate D2E/DX2 analytically  !
 ! R7    R(2,13)                 1.0958         calculate D2E/DX2 analytically  !
 ! R8    R(3,4)                  1.2108         calculate D2E/DX2 analytically  !
 ! R9    R(3,14)                 1.0969         calculate D2E/DX2 analytically  !
 ! R10   R(4,5)                  1.3285         calculate D2E/DX2 analytically  !
 ! R11   R(5,6)                  1.5062         calculate D2E/DX2 analytically  !
 ! R12   R(5,7)                  1.4198         calculate D2E/DX2 analytically  !
 ! R13   R(6,15)                 1.0993         calculate D2E/DX2 analytically  !
 ! R14   R(6,16)                 1.0997         calculate D2E/DX2 analytically  !
 ! R15   R(6,17)                 1.1038         calculate D2E/DX2 analytically  !
 ! R16   R(7,8)                  1.1687         calculate D2E/DX2 analytically  !
 ! R17   R(9,18)                 1.0921         calculate D2E/DX2 analytically  !
 ! R18   R(9,19)                 1.0933         calculate D2E/DX2 analytically  !
 ! A1    A(2,1,10)             111.1687         calculate D2E/DX2 analytically  !
 ! A2    A(2,1,11)             112.3205         calculate D2E/DX2 analytically  !
 ! A3    A(2,1,12)             110.6033         calculate D2E/DX2 analytically  !
 ! A4    A(10,1,11)            108.0466         calculate D2E/DX2 analytically  !
 ! A5    A(10,1,12)            107.5135         calculate D2E/DX2 analytically  !
 ! A6    A(11,1,12)            106.9691         calculate D2E/DX2 analytically  !
 ! A7    A(1,2,3)               96.4002         calculate D2E/DX2 analytically  !
 ! A8    A(1,2,9)              122.7539         calculate D2E/DX2 analytically  !
 ! A9    A(1,2,13)             116.1737         calculate D2E/DX2 analytically  !
 ! A10   A(3,2,9)              101.8008         calculate D2E/DX2 analytically  !
 ! A11   A(3,2,13)              88.2272         calculate D2E/DX2 analytically  !
 ! A12   A(9,2,13)             118.1765         calculate D2E/DX2 analytically  !
 ! A13   A(2,3,4)              101.7537         calculate D2E/DX2 analytically  !
 ! A14   A(2,3,14)             127.5402         calculate D2E/DX2 analytically  !
 ! A15   A(4,3,14)             130.6872         calculate D2E/DX2 analytically  !
 ! A16   A(3,4,5)              145.5435         calculate D2E/DX2 analytically  !
 ! A17   A(4,5,6)              119.8885         calculate D2E/DX2 analytically  !
 ! A18   A(4,5,7)              117.0495         calculate D2E/DX2 analytically  !
 ! A19   A(6,5,7)              120.0345         calculate D2E/DX2 analytically  !
 ! A20   A(5,6,15)             109.661          calculate D2E/DX2 analytically  !
 ! A21   A(5,6,16)             109.7739         calculate D2E/DX2 analytically  !
 ! A22   A(5,6,17)             111.9613         calculate D2E/DX2 analytically  !
 ! A23   A(15,6,16)            108.8164         calculate D2E/DX2 analytically  !
 ! A24   A(15,6,17)            108.0075         calculate D2E/DX2 analytically  !
 ! A25   A(16,6,17)            108.5508         calculate D2E/DX2 analytically  !
 ! A26   A(2,9,18)             121.3032         calculate D2E/DX2 analytically  !
 ! A27   A(2,9,19)             121.0631         calculate D2E/DX2 analytically  !
 ! A28   A(18,9,19)            116.8874         calculate D2E/DX2 analytically  !
 ! A29   L(5,7,8,18,-1)        178.6768         calculate D2E/DX2 analytically  !
 ! A30   L(5,7,8,18,-2)        181.9913         calculate D2E/DX2 analytically  !
 ! D1    D(10,1,2,3)           -77.9175         calculate D2E/DX2 analytically  !
 ! D2    D(10,1,2,9)            30.5557         calculate D2E/DX2 analytically  !
 ! D3    D(10,1,2,13)         -169.089          calculate D2E/DX2 analytically  !
 ! D4    D(11,1,2,3)            43.2873         calculate D2E/DX2 analytically  !
 ! D5    D(11,1,2,9)           151.7605         calculate D2E/DX2 analytically  !
 ! D6    D(11,1,2,13)          -47.8842         calculate D2E/DX2 analytically  !
 ! D7    D(12,1,2,3)           162.7196         calculate D2E/DX2 analytically  !
 ! D8    D(12,1,2,9)           -88.8072         calculate D2E/DX2 analytically  !
 ! D9    D(12,1,2,13)           71.5481         calculate D2E/DX2 analytically  !
 ! D10   D(1,2,3,4)            116.42           calculate D2E/DX2 analytically  !
 ! D11   D(1,2,3,14)           -62.1229         calculate D2E/DX2 analytically  !
 ! D12   D(9,2,3,4)             -9.0035         calculate D2E/DX2 analytically  !
 ! D13   D(9,2,3,14)           172.4536         calculate D2E/DX2 analytically  !
 ! D14   D(13,2,3,4)          -127.4377         calculate D2E/DX2 analytically  !
 ! D15   D(13,2,3,14)           54.0194         calculate D2E/DX2 analytically  !
 ! D16   D(1,2,9,18)           164.6496         calculate D2E/DX2 analytically  !
 ! D17   D(1,2,9,19)            -5.1456         calculate D2E/DX2 analytically  !
 ! D18   D(3,2,9,18)           -89.6972         calculate D2E/DX2 analytically  !
 ! D19   D(3,2,9,19)           100.5077         calculate D2E/DX2 analytically  !
 ! D20   D(13,2,9,18)            4.6651         calculate D2E/DX2 analytically  !
 ! D21   D(13,2,9,19)         -165.1301         calculate D2E/DX2 analytically  !
 ! D22   D(2,3,4,5)             -0.665          calculate D2E/DX2 analytically  !
 ! D23   D(14,3,4,5)           177.8112         calculate D2E/DX2 analytically  !
 ! D24   D(3,4,5,6)            -98.9745         calculate D2E/DX2 analytically  !
 ! D25   D(3,4,5,7)            100.6879         calculate D2E/DX2 analytically  !
 ! D26   D(4,5,6,15)           158.4596         calculate D2E/DX2 analytically  !
 ! D27   D(4,5,6,16)            38.9603         calculate D2E/DX2 analytically  !
 ! D28   D(4,5,6,17)           -81.6703         calculate D2E/DX2 analytically  !
 ! D29   D(7,5,6,15)           -41.7925         calculate D2E/DX2 analytically  !
 ! D30   D(7,5,6,16)          -161.2918         calculate D2E/DX2 analytically  !
 ! D31   D(7,5,6,17)            78.0777         calculate D2E/DX2 analytically  !
 --------------------------------------------------------------------------------
 Trust Radius=3.00D-02 FncErr=5.00D-06 GrdErr=5.00D-06 EigMax=2.50D+02 EigMin=1.00D-04
 Number of steps in this run=     80 maximum allowed number of steps=    114.
 Search for a saddle point of order  1.
 GradGradGradGradGradGradGradGradGradGradGradGradGradGradGradGradGradGrad

                          Input orientation:                          
 ---------------------------------------------------------------------
 Center     Atomic      Atomic             Coordinates (Angstroms)
 Number     Number       Type             X           Y           Z
 ---------------------------------------------------------------------
      1          6           0       -2.852890   -1.040440    0.161920
      2          6           0       -1.936320   -0.190230   -0.684410
      3          6           0       -1.059760    1.059640    1.059610
      4          7           0        0.109020    0.745140    1.025360
      5          6           0        1.025390   -0.000530    0.417830
      6          6           0        1.451280   -1.310620    1.026930
      7          6           0        1.861120    0.647850   -0.529300
      8          7           0        2.548640    1.141400   -1.335290
      9          6           0       -0.802990   -0.682900   -1.272980
     10          1           0       -2.293280   -1.837490    0.676940
     11          1           0       -3.385370   -0.450380    0.924000
     12          1           0       -3.622140   -1.526240   -0.465470
     13          1           0       -2.367510    0.734090   -1.085060
     14          1           0       -1.599880    1.731610    1.737720
     15          1           0        1.891580   -1.953300    0.251360
     16          1           0        0.578150   -1.821930    1.457680
     17          1           0        2.203980   -1.170840    1.822060
     18          1           0       -0.293270   -0.135860   -2.069020
     19          1           0       -0.468080   -1.706240   -1.083430
 ---------------------------------------------------------------------
                    Distance matrix (angstroms):
                    1          2          3          4          5
     1  C    0.000000
     2  C    1.509713   0.000000
     3  C    2.903704   2.317787   0.000000
     4  N    3.564651   2.825181   1.210839   0.000000
     5  C    4.023426   3.165856   2.425632   1.328477   0.000000
     6  C    4.398536   3.957246   3.453190   2.455161   1.506227
     7  C    5.054701   3.891913   3.350484   2.344416   1.419823
     8  N    6.014864   4.723531   4.331603   3.417812   2.587996
     9  C    2.527620   1.368786   2.922901   2.855421   2.582139
    10  H    1.101679   2.166601   3.171966   3.544350   3.801990
    11  H    1.101123   2.180460   2.776151   3.694632   4.462441
    12  H    1.105154   2.162139   3.946953   4.615549   4.970668
    13  H    2.222501   1.095816   2.532943   3.253797   3.782871
    14  H    3.425995   3.110205   1.096862   2.097837   3.410933
    15  H    4.832319   4.317048   4.294355   3.325383   2.142734
    16  H    3.749901   3.684230   3.338361   2.645153   2.144484
    17  H    5.324003   4.938226   4.025962   2.948655   2.174985
    18  H    3.513832   2.149352   3.435848   3.242404   2.818085
    19  H    2.771553   2.147844   3.548633   3.284708   2.719132
                    6          7          8          9         10
     6  C    0.000000
     7  C    2.534842   0.000000
     8  N    3.577245   1.168715   0.000000
     9  C    3.281060   3.069436   3.816461   0.000000
    10  H    3.797606   4.989085   6.030509   2.712237   0.000000
    11  H    4.913633   5.553724   6.546039   3.398452   1.782631
    12  H    5.292763   5.898888   6.778747   3.051377   1.779844
    13  H    4.819180   4.265867   4.939337   2.119174   3.118201
    14  H    4.366917   4.276966   5.196341   3.940711   3.787418
    15  H    1.099277   2.715942   3.539259   3.346377   4.208038
    16  H    1.099700   3.419637   4.523808   3.265186   2.975720
    17  H    1.103779   2.992337   3.928626   4.342721   4.688397
    18  H    3.742783   2.761582   3.200969   1.092130   3.799458
    19  H    2.879944   3.357674   4.156090   1.093306   2.539190
                   11         12         13         14         15
    11  H    0.000000
    12  H    1.773178   0.000000
    13  H    2.544667   2.658398   0.000000
    14  H    2.934484   4.422349   3.090694   0.000000
    15  H    5.527876   5.576498   5.210368   5.289435   0.000000
    16  H    4.227937   4.629079   4.655715   4.177306   1.788173
    17  H    5.706699   6.269193   5.742702   4.785466   1.782396
    18  H    4.314878   3.947899   2.455089   4.436884   3.668899
    19  H    3.757332   3.219063   3.092418   4.588973   2.722260
                   16         17         18         19
    16  H    0.000000
    17  H    1.788858   0.000000
    18  H    4.004974   4.737926   0.000000
    19  H    2.750495   3.983520   1.862267   0.000000
 Stoichiometry    C7H10N2
 Framework group  C1[X(C7H10N2)]
 Deg. of freedom    51
 Full point group                 C1      NOp   1
 Largest Abelian subgroup         C1      NOp   1
 Largest concise Abelian subgroup C1      NOp   1
                         Standard orientation:                         
 ---------------------------------------------------------------------
 Center     Atomic      Atomic             Coordinates (Angstroms)
 Number     Number       Type             X           Y           Z
 ---------------------------------------------------------------------
      1          6           0        2.928393    0.079638   -0.376118
      2          6           0        1.801351   -0.862649   -0.028119
      3          6           0        0.803701    0.502221    1.557429
      4          7           0       -0.274371    0.720912    1.051399
      5          6           0       -1.055171    0.501970   -0.000868
      6          6           0       -1.159214    1.540074   -1.087255
      7          6           0       -2.068290   -0.482649    0.140586
      8          7           0       -2.895291   -1.305444    0.211107
      9          6           0        0.757713   -1.114474   -0.877224
     10          1           0        2.581425    0.886370   -1.041320
     11          1           0        3.376990    0.542758    0.516492
     12          1           0        3.737834   -0.459334   -0.901170
     13          1           0        2.004284   -1.584768    0.770740
     14          1           0        1.237204    0.859740    2.499427
     15          1           0       -1.507852    1.068666   -2.017113
     16          1           0       -0.172428    1.991114   -1.266580
     17          1           0       -1.869725    2.342838   -0.824439
     18          1           0        0.093862   -1.967842   -0.722915
     19          1           0        0.655142   -0.572612   -1.821249
 ---------------------------------------------------------------------
 Rotational constants (GHZ):           2.5101950           1.0348224           0.9880958
 Standard basis: VSTO-6G (5D, 7F)
 There are    46 symmetry adapted cartesian basis functions of A   symmetry.
 There are    46 symmetry adapted basis functions of A   symmetry.
    46 basis functions,   276 primitive gaussians,    46 cartesian basis functions
    24 alpha electrons       24 beta electrons
       nuclear repulsion energy       243.6900180977 Hartrees.
 Integral buffers will be    131072 words long.
 Regular integral format.
 Two-electron integral symmetry is turned off.
 Force inversion solution in PCM.
 ------------------------------------------------------------------------------
 Polarizable Continuum Model (PCM)
 =================================
 Model                : PCM.
 Atomic radii         : SMD-Coulomb.
 Polarization charges : Total charges.
 Charge compensation  : None.
 Solution method      : Matrix inversion.
 Cavity type          : VdW (van der Waals Surface) (Alpha=1.000).
 Cavity algorithm     : GePol (No added spheres)
                        Default sphere list used, NSphG=   19.
                        Lebedev-Laikov grids with approx.  5.0 points / Ang**2.
                        Smoothing algorithm: York/Karplus (Gamma=1.0000).
                        Polarization charges: spherical gaussians, with
                                              point-specific exponents (IZeta= 3).
                        Self-potential: point-specific (ISelfS= 7).
                        Self-field    : sphere-specific E.n sum rule (ISelfD= 2).
 1st derivatives      : Analytical E(r).r(x)/FMM algorithm (CHGder, D1EAlg=3).
                        Cavity 1st derivative terms included.
 2nd derivatives      : Analytical E(r).r(xy)/FMM algorithm (CHGder, D2EAlg=3).
                        Cavity 2nd derivative terms included.
 Solvent              : Water, Eps=  78.355300 Eps(inf)=   1.777849
 ------------------------------------------------------------------------------
 Spheres list:
 ISph  on   Nord     Re0    Alpha      Xe            Ye            Ze
    1   C      1    1.8500  1.000      2.928393      0.079638     -0.376118
    2   C      2    1.8500  1.000      1.801351     -0.862649     -0.028119
    3   C      3    1.8500  1.000      0.803701      0.502221      1.557429
    4   N      4    1.8900  1.000     -0.274371      0.720912      1.051399
    5   C      5    1.8500  1.000     -1.055171      0.501970     -0.000868
    6   C      6    1.8500  1.000     -1.159214      1.540074     -1.087255
    7   C      7    1.8500  1.000     -2.068290     -0.482649      0.140586
    8   N      8    1.8900  1.000     -2.895291     -1.305444      0.211107
    9   C      9    1.8500  1.000      0.757713     -1.114474     -0.877224
   10   H     10    1.2000  1.000      2.581425      0.886370     -1.041320
   11   H     11    1.2000  1.000      3.376990      0.542758      0.516492
   12   H     12    1.2000  1.000      3.737834     -0.459334     -0.901170
   13   H     13    1.2000  1.000      2.004284     -1.584768      0.770740
   14   H     14    1.2000  1.000      1.237204      0.859740      2.499427
   15   H     15    1.2000  1.000     -1.507852      1.068666     -2.017113
   16   H     16    1.2000  1.000     -0.172428      1.991114     -1.266580
   17   H     17    1.2000  1.000     -1.869725      2.342838     -0.824439
   18   H     18    1.2000  1.000      0.093862     -1.967842     -0.722915
   19   H     19    1.2000  1.000      0.655142     -0.572612     -1.821249
 ------------------------------------------------------------------------------
 ------------------------------------------------------------------------------
 Atomic radii for non-electrostatic terms: SMD-CDS.
 ------------------------------------------------------------------------------
 Nuclear repulsion after PCM non-electrostatic terms =      243.7014112710 Hartrees.
 Do NDO integrals.
 One-electron integrals computed using PRISM.
 NBasis=    46 RedAO= F EigKep=  0.00D+00  NBF=    46
 NBsUse=    46 1.00D-04 EigRej=  0.00D+00 NBFU=    46
 Simple Huckel Guess.
 Keep J ints in memory in canonical form, NReq=1677439.
 Overlap will be assumed to be unity.
 Requested convergence on RMS density matrix=1.00D-08 within 128 cycles.
 Requested convergence on MAX density matrix=1.00D-06.
 Requested convergence on             energy=1.00D-06.
 No special actions if energy rises.
 Inv3:  Mode=1 IEnd=     7795632.
 Iteration    1 A*A^-1 deviation from unit magnitude is 2.66D-15 for   1083.
 Iteration    1 A*A^-1 deviation from orthogonality  is 2.56D-15 for   1085    285.
 Iteration    1 A^-1*A deviation from unit magnitude is 2.55D-15 for    435.
 Iteration    1 A^-1*A deviation from orthogonality  is 8.85D-13 for    837    751.
 Error on total polarization charges = -0.00040
 SCF Done:  E(RAM1) =  0.185465306145     A.U. after   16 cycles
            NFock= 15  Conv=0.68D-08     -V/T= 1.0023
 SMD-CDS (non-electrostatic) energy       (kcal/mol) =       7.15
 (included in total energy above)
 Range of M.O.s used for correlation:     1    46
 NBasis=    46 NAE=    24 NBE=    24 NFC=     0 NFV=     0
 NROrb=     46 NOA=    24 NOB=    24 NVA=    22 NVB=    22
 Symmetrizing basis deriv contribution to polar:
 IMax=3 JMax=2 DiffMx= 0.00D+00
 G2DrvN: will do    20 centers at a time, making    1 passes.
 Calling FoFCou, ICntrl=  3107 FMM=F I1Cent=   0 AccDes= 0.00D+00.
 NEqPCM:  Using equilibrium solvation (IEInf=0, Eps=  78.3553, EpsInf=   1.7778)
 G2PCM: DoFxE=T DoFxN=T DoGrad=T DoDP/DQ/DG/TGxP=FFFF NFrqRd=   0 IEInf=0 SqF1=F DoCFld=F IF1Alg=4.
 End of G2Drv F.D. properties file   721 does not exist.
 End of G2Drv F.D. properties file   722 does not exist.
 End of G2Drv F.D. properties file   788 does not exist.
          IDoAtm=1111111111111111111
 NEqPCM:  Using equilibrium solvation (IEInf=0, Eps=  78.3553, EpsInf=   1.7778)
          Differentiating once with respect to nuclear coordinates.
          Electric field/nuclear overlap derivatives assumed to be zero.
 Keep J ints in memory in canonical form, NReq=7240824.
          There are    60 degrees of freedom in the 1st order CPHF.  IDoFFX=5 NUNeed=    60.
 LinEq1:  Iter=  0 NonCon=    57 RMS=1.62D-02 Max=1.59D-01 NDo=    57
 AX will form    60 AO Fock derivatives at one time.
 LinEq1:  Iter=  1 NonCon=    57 RMS=2.90D-03 Max=3.36D-02 NDo=    60
 LinEq1:  Iter=  2 NonCon=    57 RMS=6.27D-04 Max=8.72D-03 NDo=    60
 LinEq1:  Iter=  3 NonCon=    57 RMS=1.36D-04 Max=1.54D-03 NDo=    60
 LinEq1:  Iter=  4 NonCon=    57 RMS=2.53D-05 Max=3.03D-04 NDo=    60
 LinEq1:  Iter=  5 NonCon=    57 RMS=4.28D-06 Max=3.64D-05 NDo=    60
 LinEq1:  Iter=  6 NonCon=    57 RMS=7.15D-07 Max=4.95D-06 NDo=    60
 LinEq1:  Iter=  7 NonCon=    39 RMS=9.61D-08 Max=6.37D-07 NDo=    60
 LinEq1:  Iter=  8 NonCon=     9 RMS=1.36D-08 Max=1.47D-07 NDo=    39
 LinEq1:  Iter=  9 NonCon=     0 RMS=2.13D-09 Max=2.18D-08 NDo=     9
 Linear equations converged to 1.000D-08 1.000D-07 after     9 iterations.
 End of Minotr F.D. properties file   721 does not exist.
 End of Minotr F.D. properties file   722 does not exist.
 End of Minotr F.D. properties file   788 does not exist.

 **********************************************************************

            Population analysis using the SCF Density.

 **********************************************************************

 Orbital symmetries:
       Occupied  (A) (A) (A) (A) (A) (A) (A) (A) (A) (A) (A) (A)
                 (A) (A) (A) (A) (A) (A) (A) (A) (A) (A) (A) (A)
       Virtual   (A) (A) (A) (A) (A) (A) (A) (A) (A) (A) (A) (A)
                 (A) (A) (A) (A) (A) (A) (A) (A) (A) (A)
 The electronic state is 1-A.
 Alpha  occ. eigenvalues --   -1.44900  -1.33893  -1.26564  -1.19531  -1.02076
 Alpha  occ. eigenvalues --   -0.98585  -0.82856  -0.75968  -0.65563  -0.60825
 Alpha  occ. eigenvalues --   -0.59126  -0.57631  -0.54854  -0.52548  -0.51514
 Alpha  occ. eigenvalues --   -0.49789  -0.49374  -0.48755  -0.48058  -0.46236
 Alpha  occ. eigenvalues --   -0.45593  -0.43516  -0.35102  -0.30489
 Alpha virt. eigenvalues --   -0.01036   0.03132   0.05229   0.05555   0.07836
 Alpha virt. eigenvalues --    0.08927   0.12759   0.15057   0.15953   0.16087
 Alpha virt. eigenvalues --    0.16555   0.16873   0.17150   0.17219   0.18249
 Alpha virt. eigenvalues --    0.18604   0.18750   0.19022   0.20934   0.21458
 Alpha virt. eigenvalues --    0.24219   0.25383
          Condensed to atoms (all electrons):
               1          2          3          4          5          6
     1  C    4.190651   0.000000   0.000000   0.000000   0.000000   0.000000
     2  C    0.000000   4.156831   0.000000   0.000000   0.000000   0.000000
     3  C    0.000000   0.000000   4.006488   0.000000   0.000000   0.000000
     4  N    0.000000   0.000000   0.000000   5.039841   0.000000   0.000000
     5  C    0.000000   0.000000   0.000000   0.000000   4.130484   0.000000
     6  C    0.000000   0.000000   0.000000   0.000000   0.000000   4.148570
     7  C    0.000000   0.000000   0.000000   0.000000   0.000000   0.000000
     8  N    0.000000   0.000000   0.000000   0.000000   0.000000   0.000000
     9  C    0.000000   0.000000   0.000000   0.000000   0.000000   0.000000
    10  H    0.000000   0.000000   0.000000   0.000000   0.000000   0.000000
    11  H    0.000000   0.000000   0.000000   0.000000   0.000000   0.000000
    12  H    0.000000   0.000000   0.000000   0.000000   0.000000   0.000000
    13  H    0.000000   0.000000   0.000000   0.000000   0.000000   0.000000
    14  H    0.000000   0.000000   0.000000   0.000000   0.000000   0.000000
    15  H    0.000000   0.000000   0.000000   0.000000   0.000000   0.000000
    16  H    0.000000   0.000000   0.000000   0.000000   0.000000   0.000000
    17  H    0.000000   0.000000   0.000000   0.000000   0.000000   0.000000
    18  H    0.000000   0.000000   0.000000   0.000000   0.000000   0.000000
    19  H    0.000000   0.000000   0.000000   0.000000   0.000000   0.000000
               7          8          9         10         11         12
     1  C    0.000000   0.000000   0.000000   0.000000   0.000000   0.000000
     2  C    0.000000   0.000000   0.000000   0.000000   0.000000   0.000000
     3  C    0.000000   0.000000   0.000000   0.000000   0.000000   0.000000
     4  N    0.000000   0.000000   0.000000   0.000000   0.000000   0.000000
     5  C    0.000000   0.000000   0.000000   0.000000   0.000000   0.000000
     6  C    0.000000   0.000000   0.000000   0.000000   0.000000   0.000000
     7  C    4.036952   0.000000   0.000000   0.000000   0.000000   0.000000
     8  N    0.000000   5.152732   0.000000   0.000000   0.000000   0.000000
     9  C    0.000000   0.000000   4.259650   0.000000   0.000000   0.000000
    10  H    0.000000   0.000000   0.000000   0.922896   0.000000   0.000000
    11  H    0.000000   0.000000   0.000000   0.000000   0.915344   0.000000
    12  H    0.000000   0.000000   0.000000   0.000000   0.000000   0.921790
    13  H    0.000000   0.000000   0.000000   0.000000   0.000000   0.000000
    14  H    0.000000   0.000000   0.000000   0.000000   0.000000   0.000000
    15  H    0.000000   0.000000   0.000000   0.000000   0.000000   0.000000
    16  H    0.000000   0.000000   0.000000   0.000000   0.000000   0.000000
    17  H    0.000000   0.000000   0.000000   0.000000   0.000000   0.000000
    18  H    0.000000   0.000000   0.000000   0.000000   0.000000   0.000000
    19  H    0.000000   0.000000   0.000000   0.000000   0.000000   0.000000
              13         14         15         16         17         18
     1  C    0.000000   0.000000   0.000000   0.000000   0.000000   0.000000
     2  C    0.000000   0.000000   0.000000   0.000000   0.000000   0.000000
     3  C    0.000000   0.000000   0.000000   0.000000   0.000000   0.000000
     4  N    0.000000   0.000000   0.000000   0.000000   0.000000   0.000000
     5  C    0.000000   0.000000   0.000000   0.000000   0.000000   0.000000
     6  C    0.000000   0.000000   0.000000   0.000000   0.000000   0.000000
     7  C    0.000000   0.000000   0.000000   0.000000   0.000000   0.000000
     8  N    0.000000   0.000000   0.000000   0.000000   0.000000   0.000000
     9  C    0.000000   0.000000   0.000000   0.000000   0.000000   0.000000
    10  H    0.000000   0.000000   0.000000   0.000000   0.000000   0.000000
    11  H    0.000000   0.000000   0.000000   0.000000   0.000000   0.000000
    12  H    0.000000   0.000000   0.000000   0.000000   0.000000   0.000000
    13  H    0.878471   0.000000   0.000000   0.000000   0.000000   0.000000
    14  H    0.000000   0.739537   0.000000   0.000000   0.000000   0.000000
    15  H    0.000000   0.000000   0.901709   0.000000   0.000000   0.000000
    16  H    0.000000   0.000000   0.000000   0.905345   0.000000   0.000000
    17  H    0.000000   0.000000   0.000000   0.000000   0.916022   0.000000
    18  H    0.000000   0.000000   0.000000   0.000000   0.000000   0.886737
    19  H    0.000000   0.000000   0.000000   0.000000   0.000000   0.000000
              19
     1  C    0.000000
     2  C    0.000000
     3  C    0.000000
     4  N    0.000000
     5  C    0.000000
     6  C    0.000000
     7  C    0.000000
     8  N    0.000000
     9  C    0.000000
    10  H    0.000000
    11  H    0.000000
    12  H    0.000000
    13  H    0.000000
    14  H    0.000000
    15  H    0.000000
    16  H    0.000000
    17  H    0.000000
    18  H    0.000000
    19  H    0.889950
 Mulliken charges:
               1
     1  C   -0.190651
     2  C   -0.156831
     3  C   -0.006488
     4  N   -0.039841
     5  C   -0.130484
     6  C   -0.148570
     7  C   -0.036952
     8  N   -0.152732
     9  C   -0.259650
    10  H    0.077104
    11  H    0.084656
    12  H    0.078210
    13  H    0.121529
    14  H    0.260463
    15  H    0.098291
    16  H    0.094655
    17  H    0.083978
    18  H    0.113263
    19  H    0.110050
 Sum of Mulliken charges =  -0.00000
 Mulliken charges with hydrogens summed into heavy atoms:
               1
     1  C    0.049319
     2  C   -0.035302
     3  C    0.253976
     4  N   -0.039841
     5  C   -0.130484
     6  C    0.128353
     7  C   -0.036952
     8  N   -0.152732
     9  C   -0.036336
 APT charges:
               1
     1  C   -0.190651
     2  C   -0.156831
     3  C   -0.006488
     4  N   -0.039841
     5  C   -0.130484
     6  C   -0.148570
     7  C   -0.036952
     8  N   -0.152732
     9  C   -0.259650
    10  H    0.077104
    11  H    0.084656
    12  H    0.078210
    13  H    0.121529
    14  H    0.260463
    15  H    0.098291
    16  H    0.094655
    17  H    0.083978
    18  H    0.113263
    19  H    0.110050
 Sum of APT charges =  -0.00000
 APT charges with hydrogens summed into heavy atoms:
               1
     1  C    0.049319
     2  C   -0.035302
     3  C    0.253976
     4  N   -0.039841
     5  C   -0.130484
     6  C    0.128353
     7  C   -0.036952
     8  N   -0.152732
     9  C   -0.036336
 Charge=             -0.0000 electrons
 Dipole moment (field-independent basis, Debye):
    X=              4.2770    Y=              3.8116    Z=              2.1507  Tot=              6.1194
 N-N= 2.437014112710D+02 E-N=-3.711104480031D+02  KE=-8.232929912782D+01
  Exact polarizability:       0.000       0.000       0.000       0.000       0.000       0.000
 Approx polarizability:      96.298      12.328      45.087      30.216       2.563      54.395
 D2PCM: PCM CHGder 2nd derivatives, FixD1E=F FixD2E=F DoIter=F DoCFld=F I1PDM=0
 Calling FoFJK, ICntrl=    100127 FMM=F ISym2X=0 I1Cent= 0 IOpClX= 0 NMat=1 NMatS=1 NMatT=0.
 ***** Axes restored to original set *****
 -------------------------------------------------------------------
 Center     Atomic                   Forces (Hartrees/Bohr)
 Number     Number              X              Y              Z
 -------------------------------------------------------------------
      1        6           0.021456500    0.016325097   -0.013931602
      2        6           0.001273930   -0.029667564   -0.013530100
      3        6           0.004539444    0.013559846    0.019728136
      4        7          -0.005690152   -0.005863119   -0.006706739
      5        6           0.008169654   -0.001505870    0.008122707
      6        6          -0.002571328    0.017449155   -0.011936469
      7        6           0.007185147   -0.007490435   -0.004631827
      8        7          -0.003060206   -0.001252751    0.003107773
      9        6          -0.030309998    0.004483627    0.013017444
     10        1           0.007113460   -0.007391010    0.005017284
     11        1          -0.002766677    0.009285638    0.006789203
     12        1          -0.005231836   -0.002649829   -0.008713508
     13        1          -0.001544281    0.006543877    0.005648120
     14        1          -0.008752527   -0.003654357   -0.007670628
     15        1           0.004836499   -0.006248675   -0.010274257
     16        1          -0.010024644   -0.007435958    0.005367200
     17        1           0.006657649    0.003736022    0.007043436
     18        1           0.004127924    0.002069968    0.001415699
     19        1           0.004591440   -0.000293662    0.002138126
 -------------------------------------------------------------------
 Cartesian Forces:  Max     0.030309998 RMS     0.009959547
 FormGI is forming the generalized inverse of G from B-inverse, IUseBI=4.

 GradGradGradGradGradGradGradGradGradGradGradGradGradGradGradGradGradGrad
 Berny optimization.
 Internal  Forces:  Max     0.027327073 RMS     0.006793804
 Search for a saddle point.
 Step number   1 out of a maximum of   80
 All quantities printed in internal units (Hartrees-Bohrs-Radians)
 Swapping is turned off.
 Second derivative matrix not updated -- analytic derivatives used.
 ITU=  0
     Eigenvalues ---   -0.03324   0.00037   0.00071   0.00330   0.00663
     Eigenvalues ---    0.01222   0.01420   0.01789   0.02028   0.02671
     Eigenvalues ---    0.02697   0.03342   0.04559   0.04687   0.05448
     Eigenvalues ---    0.05753   0.05931   0.05948   0.06932   0.09196
     Eigenvalues ---    0.09620   0.10218   0.11287   0.11891   0.12340
     Eigenvalues ---    0.12665   0.13011   0.13409   0.14046   0.14058
     Eigenvalues ---    0.15310   0.16351   0.19326   0.20733   0.34166
     Eigenvalues ---    0.34991   0.35336   0.35499   0.35946   0.36082
     Eigenvalues ---    0.36163   0.37909   0.38458   0.38896   0.44493
     Eigenvalues ---    0.47287   0.52892   0.70722   0.78515   1.18335
     Eigenvalues ---    1.40038
 Eigenvectors required to have negative eigenvalues:
                          R5        A16       D21       D16       D27
   1                    0.61423   0.54850  -0.17806   0.16090  -0.12401
                          D28       D29       D26       A14       D25
   1                   -0.12288   0.12105  -0.11880  -0.11871  -0.11827
 RFO step:  Lambda0=3.633285255D-03 Lambda=-1.37722459D-02.
 Linear search not attempted -- option 19 set.
 Maximum step size (   0.030) exceeded in Quadratic search.
    -- Step size scaled by   0.066
 Iteration  1 RMS(Cart)=  0.01361678 RMS(Int)=  0.00004499
 Iteration  2 RMS(Cart)=  0.00006035 RMS(Int)=  0.00000283
 Iteration  3 RMS(Cart)=  0.00000000 RMS(Int)=  0.00000283
 Variable       Old X    -DE/DX   Delta X   Delta X   Delta X     New X
                                 (Linear)    (Quad)   (Total)
    R1        2.85294  -0.02733   0.00000  -0.00382  -0.00382   2.84912
    R2        2.08187   0.01130   0.00000   0.00193   0.00193   2.08381
    R3        2.08082   0.01102   0.00000   0.00201   0.00201   2.08283
    R4        2.08844   0.00975   0.00000   0.00173   0.00173   2.09017
    R5        4.37998   0.00275   0.00000  -0.01671  -0.01671   4.36328
    R6        2.58663  -0.02728   0.00000  -0.00021  -0.00021   2.58642
    R7        2.07079   0.00406   0.00000   0.00087   0.00087   2.07166
    R8        2.28815   0.00786   0.00000   0.00046   0.00046   2.28862
    R9        2.07277  -0.00267   0.00000  -0.00158  -0.00158   2.07119
   R10        2.51046   0.01079   0.00000   0.00346   0.00346   2.51391
   R11        2.84636  -0.01079   0.00000  -0.00159  -0.00159   2.84476
   R12        2.68308  -0.00054   0.00000   0.00042   0.00042   2.68350
   R13        2.07733   0.01285   0.00000   0.00219   0.00219   2.07952
   R14        2.07813   0.01352   0.00000   0.00214   0.00214   2.08027
   R15        2.08584   0.01008   0.00000   0.00176   0.00176   2.08760
   R16        2.20855  -0.00447   0.00000  -0.00018  -0.00018   2.20838
   R17        2.06383   0.00193   0.00000   0.00058   0.00058   2.06440
   R18        2.06605   0.00205   0.00000   0.00056   0.00056   2.06661
    A1        1.94026  -0.00024   0.00000   0.00047   0.00047   1.94073
    A2        1.96036  -0.00501   0.00000  -0.00153  -0.00153   1.95883
    A3        1.93039  -0.00418   0.00000  -0.00044  -0.00044   1.92995
    A4        1.88577   0.00265   0.00000   0.00018   0.00018   1.88595
    A5        1.87647   0.00283   0.00000   0.00045   0.00045   1.87692
    A6        1.86696   0.00457   0.00000   0.00098   0.00098   1.86795
    A7        1.68250  -0.00108   0.00000  -0.00154  -0.00154   1.68096
    A8        2.14246  -0.00166   0.00000  -0.00090  -0.00090   2.14156
    A9        2.02761  -0.00081   0.00000  -0.00055  -0.00055   2.02706
   A10        1.77676  -0.00112   0.00000  -0.00157  -0.00157   1.77518
   A11        1.53986  -0.00158   0.00000   0.00144   0.00144   1.54130
   A12        2.06257   0.00379   0.00000   0.00210   0.00210   2.06467
   A13        1.77594  -0.00731   0.00000  -0.00040  -0.00040   1.77554
   A14        2.22600  -0.00867   0.00000  -0.01244  -0.01244   2.21356
   A15        2.28092   0.01598   0.00000   0.01284   0.01284   2.29376
   A16        2.54021   0.00405   0.00000  -0.01354  -0.01354   2.52667
   A17        2.09245   0.00623   0.00000   0.00119   0.00118   2.09363
   A18        2.04290   0.00873   0.00000   0.00184   0.00183   2.04473
   A19        2.09500  -0.01433   0.00000  -0.00543  -0.00544   2.08956
   A20        1.91395  -0.00243   0.00000  -0.00097  -0.00097   1.91297
   A21        1.91592   0.00315   0.00000   0.00137   0.00137   1.91729
   A22        1.95409  -0.00366   0.00000  -0.00056  -0.00056   1.95354
   A23        1.89921   0.00016   0.00000  -0.00022  -0.00021   1.89899
   A24        1.88509   0.00221   0.00000   0.00046   0.00046   1.88554
   A25        1.89457   0.00066   0.00000  -0.00009  -0.00009   1.89448
   A26        2.11714   0.00042   0.00000   0.00001   0.00001   2.11715
   A27        2.11295   0.00252   0.00000   0.00099   0.00099   2.11394
   A28        2.04007  -0.00215   0.00000  -0.00126  -0.00126   2.03881
   A29        3.11850  -0.00034   0.00000  -0.00137  -0.00137   3.11713
   A30        3.17635  -0.00161   0.00000  -0.00025  -0.00025   3.17609
    D1       -1.35992   0.00035   0.00000   0.00195   0.00195  -1.35796
    D2        0.53330  -0.00236   0.00000  -0.00139  -0.00139   0.53191
    D3       -2.95116   0.00276   0.00000   0.00116   0.00116  -2.95000
    D4        0.75551   0.00008   0.00000   0.00144   0.00144   0.75695
    D5        2.64872  -0.00263   0.00000  -0.00190  -0.00190   2.64682
    D6       -0.83574   0.00249   0.00000   0.00065   0.00065  -0.83508
    D7        2.83999  -0.00030   0.00000   0.00137   0.00137   2.84136
    D8       -1.54998  -0.00301   0.00000  -0.00197  -0.00197  -1.55195
    D9        1.24875   0.00211   0.00000   0.00058   0.00058   1.24933
   D10        2.03191   0.00016   0.00000   0.00259   0.00260   2.03451
   D11       -1.08425  -0.00041   0.00000   0.00235   0.00235  -1.08190
   D12       -0.15714   0.00260   0.00000   0.00452   0.00452  -0.15263
   D13        3.00988   0.00203   0.00000   0.00427   0.00427   3.01415
   D14       -2.22421  -0.00085   0.00000   0.00217   0.00217  -2.22204
   D15        0.94282  -0.00142   0.00000   0.00192   0.00192   0.94473
   D16        2.87368   0.00499   0.00000   0.00085   0.00085   2.87452
   D17       -0.08981  -0.00011   0.00000   0.00270   0.00270  -0.08711
   D18       -1.56551   0.00216   0.00000  -0.00258  -0.00258  -1.56809
   D19        1.75419  -0.00294   0.00000  -0.00073  -0.00073   1.75346
   D20        0.08142   0.00065   0.00000  -0.00125  -0.00125   0.08017
   D21       -2.88206  -0.00444   0.00000   0.00060   0.00060  -2.88146
   D22       -0.01161   0.00070   0.00000   0.00275   0.00275  -0.00885
   D23        3.10339   0.00076   0.00000   0.00246   0.00246   3.10586
   D24       -1.72743  -0.00012   0.00000  -0.00519  -0.00520  -1.73263
   D25        1.75734   0.00074   0.00000   0.00342   0.00343   1.76077
   D26        2.76564  -0.00112   0.00000   0.00440   0.00439   2.77003
   D27        0.67999  -0.00176   0.00000   0.00442   0.00441   0.68440
   D28       -1.42542  -0.00234   0.00000   0.00396   0.00395  -1.42146
   D29       -0.72942   0.00268   0.00000  -0.00298  -0.00298  -0.73240
   D30       -2.81507   0.00205   0.00000  -0.00296  -0.00296  -2.81803
   D31        1.36271   0.00147   0.00000  -0.00342  -0.00342   1.35929
         Item               Value     Threshold  Converged?
 Maximum Force            0.027327     0.000450     NO 
 RMS     Force            0.006794     0.000300     NO 
 Maximum Displacement     0.039622     0.001800     NO 
 RMS     Displacement     0.013629     0.001200     NO 
 Predicted change in Energy=-6.540201D-04
 GradGradGradGradGradGradGradGradGradGradGradGradGradGradGradGradGradGrad

                          Input orientation:                          
 ---------------------------------------------------------------------
 Center     Atomic      Atomic             Coordinates (Angstroms)
 Number     Number       Type             X           Y           Z
 ---------------------------------------------------------------------
      1          6           0       -2.845615   -1.036819    0.164284
      2          6           0       -1.927558   -0.189084   -0.679306
      3          6           0       -1.064901    1.059676    1.060708
      4          7           0        0.105127    0.748449    1.030735
      5          6           0        1.014772   -0.000761    0.413530
      6          6           0        1.442306   -1.312520    1.015761
      7          6           0        1.852949    0.645874   -0.532964
      8          7           0        2.541213    1.137738   -1.339215
      9          6           0       -0.789597   -0.682318   -1.258129
     10          1           0       -2.287023   -1.831628    0.686020
     11          1           0       -3.382706   -0.443069    0.921784
     12          1           0       -3.611328   -1.526341   -0.466144
     13          1           0       -2.358897    0.733618   -1.084750
     14          1           0       -1.620847    1.727036    1.729162
     15          1           0        1.877886   -1.953117    0.234183
     16          1           0        0.570980   -1.825917    1.450551
     17          1           0        2.200487   -1.175417    1.807439
     18          1           0       -0.275425   -0.137778   -2.053438
     19          1           0       -0.454153   -1.704893   -1.063762
 ---------------------------------------------------------------------
                    Distance matrix (angstroms):
                    1          2          3          4          5
     1  C    0.000000
     2  C    1.507689   0.000000
     3  C    2.893063   2.308946   0.000000
     4  N    3.555952   2.816916   1.211084   0.000000
     5  C    4.004763   3.144370   2.422479   1.330305   0.000000
     6  C    4.380330   3.935905   3.451872   2.456800   1.505384
     7  C    5.039258   3.874379   3.350354   2.347458   1.420045
     8  N    6.000593   4.708062   4.332410   3.420924   2.588110
     9  C    2.525102   1.368675   2.913304   2.843681   2.552393
    10  H    1.102703   2.165937   3.161268   3.535252   3.785257
    11  H    1.102185   2.178406   2.765821   3.687352   4.448794
    12  H    1.106068   2.160734   3.937391   4.607315   4.949951
    13  H    2.220682   1.096274   2.526605   3.247601   3.763748
    14  H    3.404085   3.092944   1.096027   2.103430   3.415063
    15  H    4.812062   4.292747   4.291859   3.328007   2.142154
    16  H    3.735007   3.668543   3.339870   2.649646   2.145590
    17  H    5.308701   4.919096   4.026910   2.948739   2.174562
    18  H    3.511758   2.149515   3.428567   3.231460   2.787348
    19  H    2.770110   2.148583   3.539665   3.273927   2.691504
                    6          7          8          9         10
     6  C    0.000000
     7  C    2.530312   0.000000
     8  N    3.571732   1.168622   0.000000
     9  C    3.247941   3.045162   3.796508   0.000000
    10  H    3.779696   4.976275   6.019184   2.709782   0.000000
    11  H    4.903623   5.542037   6.534820   3.396097   1.784433
    12  H    5.270766   5.880587   6.761163   3.049882   1.781703
    13  H    4.800831   4.248744   4.923327   2.120764   3.117897
    14  H    4.373871   4.284085   5.204320   3.926814   3.767761
    15  H    1.100436   2.709961   3.531142   3.310195   4.191108
    16  H    1.100830   3.418702   4.521930   3.239743   2.958500
    17  H    1.104712   2.985861   3.920231   4.310621   4.671824
    18  H    3.708180   2.730555   3.173406   1.092434   3.797405
    19  H    2.841642   3.336251   4.138676   1.093600   2.537167
                   11         12         13         14         15
    11  H    0.000000
    12  H    1.775412   0.000000
    13  H    2.541447   2.656815   0.000000
    14  H    2.909529   4.400663   3.074036   0.000000
    15  H    5.516055   5.550141   5.187337   5.293356   0.000000
    16  H    4.221788   4.610332   4.643614   4.183922   1.789897
    17  H    5.700242   6.250561   5.726880   4.799265   1.784383
    18  H    4.312811   3.946626   2.457345   4.426709   3.628417
    19  H    3.756463   3.218196   3.094322   4.575995   2.680425
                   16         17         18         19
    16  H    0.000000
    17  H    1.790477   0.000000
    18  H    3.980471   4.702468   0.000000
    19  H    2.717961   3.946042   1.862056   0.000000
 Stoichiometry    C7H10N2
 Framework group  C1[X(C7H10N2)]
 Deg. of freedom    51
 Full point group                 C1      NOp   1
 Largest Abelian subgroup         C1      NOp   1
 Largest concise Abelian subgroup C1      NOp   1
                         Standard orientation:                         
 ---------------------------------------------------------------------
 Center     Atomic      Atomic             Coordinates (Angstroms)
 Number     Number       Type             X           Y           Z
 ---------------------------------------------------------------------
      1          6           0        2.918833    0.069327   -0.380657
      2          6           0        1.787523   -0.865534   -0.035261
      3          6           0        0.813717    0.492260    1.558267
      4          7           0       -0.266158    0.721175    1.060079
      5          6           0       -1.043991    0.501246    0.003519
      6          6           0       -1.147635    1.538503   -1.082545
      7          6           0       -2.063333   -0.477718    0.141723
      8          7           0       -2.894391   -1.296536    0.209223
      9          6           0        0.736909   -1.099093   -0.880798
     10          1           0        2.575004    0.885813   -1.037229
     11          1           0        3.375219    0.520647    0.515353
     12          1           0        3.721533   -0.472491   -0.914973
     13          1           0        1.989195   -1.595825    0.757089
     14          1           0        1.266928    0.834177    2.495800
     15          1           0       -1.497039    1.065546   -2.012700
     16          1           0       -0.160240    1.990351   -1.263409
     17          1           0       -1.858775    2.341851   -0.819294
     18          1           0        0.065683   -1.947891   -0.731096
     19          1           0        0.634194   -0.548593   -1.820139
 ---------------------------------------------------------------------
 Rotational constants (GHZ):           2.5207147           1.0401721           0.9953016
 Standard basis: VSTO-6G (5D, 7F)
 There are    46 symmetry adapted cartesian basis functions of A   symmetry.
 There are    46 symmetry adapted basis functions of A   symmetry.
    46 basis functions,   276 primitive gaussians,    46 cartesian basis functions
    24 alpha electrons       24 beta electrons
       nuclear repulsion energy       244.0238947567 Hartrees.
 Integral buffers will be    131072 words long.
 Regular integral format.
 Two-electron integral symmetry is turned off.
 ------------------------------------------------------------------------------
 Polarizable Continuum Model (PCM)
 =================================
 Model                : PCM.
 Atomic radii         : SMD-Coulomb.
 Polarization charges : Total charges.
 Charge compensation  : None.
 Solution method      : Matrix inversion.
 Cavity type          : VdW (van der Waals Surface) (Alpha=1.000).
 Cavity algorithm     : GePol (No added spheres)
                        Default sphere list used, NSphG=   19.
                        Lebedev-Laikov grids with approx.  5.0 points / Ang**2.
                        Smoothing algorithm: York/Karplus (Gamma=1.0000).
                        Polarization charges: spherical gaussians, with
                                              point-specific exponents (IZeta= 3).
                        Self-potential: point-specific (ISelfS= 7).
                        Self-field    : sphere-specific E.n sum rule (ISelfD= 2).
 1st derivatives      : Analytical E(r).r(x)/FMM algorithm (CHGder, D1EAlg=3).
                        Cavity 1st derivative terms included.
 Solvent              : Water, Eps=  78.355300 Eps(inf)=   1.777849
 ------------------------------------------------------------------------------
 Spheres list:
 ISph  on   Nord     Re0    Alpha      Xe            Ye            Ze
    1   C      1    1.8500  1.000      2.918833      0.069327     -0.380657
    2   C      2    1.8500  1.000      1.787523     -0.865534     -0.035261
    3   C      3    1.8500  1.000      0.813717      0.492260      1.558267
    4   N      4    1.8900  1.000     -0.266158      0.721175      1.060079
    5   C      5    1.8500  1.000     -1.043991      0.501246      0.003519
    6   C      6    1.8500  1.000     -1.147635      1.538503     -1.082545
    7   C      7    1.8500  1.000     -2.063333     -0.477718      0.141723
    8   N      8    1.8900  1.000     -2.894391     -1.296536      0.209223
    9   C      9    1.8500  1.000      0.736909     -1.099093     -0.880798
   10   H     10    1.2000  1.000      2.575004      0.885813     -1.037229
   11   H     11    1.2000  1.000      3.375219      0.520647      0.515353
   12   H     12    1.2000  1.000      3.721533     -0.472491     -0.914973
   13   H     13    1.2000  1.000      1.989195     -1.595825      0.757089
   14   H     14    1.2000  1.000      1.266928      0.834177      2.495800
   15   H     15    1.2000  1.000     -1.497039      1.065546     -2.012700
   16   H     16    1.2000  1.000     -0.160240      1.990351     -1.263409
   17   H     17    1.2000  1.000     -1.858775      2.341851     -0.819294
   18   H     18    1.2000  1.000      0.065683     -1.947891     -0.731096
   19   H     19    1.2000  1.000      0.634194     -0.548593     -1.820139
 ------------------------------------------------------------------------------
 ------------------------------------------------------------------------------
 Atomic radii for non-electrostatic terms: SMD-CDS.
 ------------------------------------------------------------------------------
 Nuclear repulsion after PCM non-electrostatic terms =      244.0352257616 Hartrees.
 Do NDO integrals.
 One-electron integrals computed using PRISM.
 NBasis=    46 RedAO= F EigKep=  0.00D+00  NBF=    46
 NBsUse=    46 1.00D-04 EigRej=  0.00D+00 NBFU=    46
 Initial guess from the checkpoint file:  "/local/jobs/447481/Gau-2580865.chk"
 B after Tr=    -0.000000    0.000000    0.000000
         Rot=    0.999995   -0.002023   -0.001141    0.002004 Ang=  -0.35 deg.
 Keep J ints in memory in canonical form, NReq=1677597.
 Overlap will be assumed to be unity.
 Requested convergence on RMS density matrix=1.00D-08 within 128 cycles.
 Requested convergence on MAX density matrix=1.00D-06.
 Requested convergence on             energy=1.00D-06.
 No special actions if energy rises.
 Inv3:  Mode=1 IEnd=     7805307.
 Iteration    1 A*A^-1 deviation from unit magnitude is 2.55D-15 for    186.
 Iteration    1 A*A^-1 deviation from orthogonality  is 2.17D-15 for   1132    476.
 Iteration    1 A^-1*A deviation from unit magnitude is 2.66D-15 for    593.
 Iteration    1 A^-1*A deviation from orthogonality  is 1.15D-13 for    806    749.
 Error on total polarization charges = -0.00038
 SCF Done:  E(RAM1) =  0.184809538515     A.U. after   13 cycles
            NFock= 12  Conv=0.59D-08     -V/T= 1.0022
 SMD-CDS (non-electrostatic) energy       (kcal/mol) =       7.11
 (included in total energy above)
 D1PCM: PCM CHGder 1st derivatives, ID1Alg=3 FixD1E=F DoIter=F DoCFld=F I1PDM=0.
 Calling FoFJK, ICntrl=      2127 FMM=F ISym2X=0 I1Cent= 0 IOpClX= 0 NMat=1 NMatS=1 NMatT=0.
 ***** Axes restored to original set *****
 -------------------------------------------------------------------
 Center     Atomic                   Forces (Hartrees/Bohr)
 Number     Number              X              Y              Z
 -------------------------------------------------------------------
      1        6           0.020127749    0.015284821   -0.012927008
      2        6           0.001169275   -0.027792028   -0.012639203
      3        6           0.004211113    0.012805723    0.018626742
      4        7          -0.005228984   -0.005409137   -0.006160261
      5        6           0.007666162   -0.001505270    0.007447360
      6        6          -0.002418132    0.016394025   -0.011056871
      7        6           0.006725141   -0.007016667   -0.004348336
      8        7          -0.002866569   -0.001166831    0.002902432
      9        6          -0.028430822    0.004139313    0.011957308
     10        1           0.006640626   -0.006886576    0.004770117
     11        1          -0.002626473    0.008720013    0.006309506
     12        1          -0.004854288   -0.002517300   -0.008170732
     13        1          -0.001454616    0.006183017    0.005319969
     14        1          -0.008208247   -0.003580403   -0.007341406
     15        1           0.004471121   -0.005815943   -0.009669468
     16        1          -0.009346442   -0.006990671    0.005052946
     17        1           0.006270857    0.003468276    0.006569830
     18        1           0.003858242    0.001948672    0.001333971
     19        1           0.004294287   -0.000263034    0.002023104
 -------------------------------------------------------------------
 Cartesian Forces:  Max     0.028430822 RMS     0.009327225

 GradGradGradGradGradGradGradGradGradGradGradGradGradGradGradGradGradGrad
 Berny optimization.
 FormGI is forming the generalized inverse of G from B-inverse, IUseBI=4.
 Internal  Forces:  Max     0.025555468 RMS     0.006361682
 Search for a saddle point.
 Step number   2 out of a maximum of   80
 All quantities printed in internal units (Hartrees-Bohrs-Radians)
 Swapping is turned off.
 Update second derivatives using D2CorX and points    1    2
 ITU=  0  0
     Eigenvalues ---   -0.03074   0.00037   0.00071   0.00333   0.00659
     Eigenvalues ---    0.01222   0.01422   0.01786   0.02031   0.02433
     Eigenvalues ---    0.02698   0.03333   0.04559   0.04687   0.05438
     Eigenvalues ---    0.05765   0.05931   0.05949   0.06943   0.09220
     Eigenvalues ---    0.09614   0.10214   0.11321   0.11900   0.12430
     Eigenvalues ---    0.12701   0.13011   0.13419   0.14046   0.14064
     Eigenvalues ---    0.15319   0.16348   0.19576   0.20758   0.34166
     Eigenvalues ---    0.34991   0.35336   0.35499   0.35946   0.36083
     Eigenvalues ---    0.36163   0.37906   0.38452   0.38895   0.44491
     Eigenvalues ---    0.47289   0.52895   0.70789   0.78518   1.18356
     Eigenvalues ---    1.40038
 Eigenvectors required to have negative eigenvalues:
                          R5        A16       D21       D16       D27
   1                    0.62209   0.53313  -0.18706   0.16745  -0.12522
                          D28       D24       D29       D26       D31
   1                   -0.12460   0.12353   0.12330  -0.12042   0.11912
 RFO step:  Lambda0=3.810283126D-03 Lambda=-1.24180654D-02.
 Linear search not attempted -- option 19 set.
 Maximum step size (   0.030) exceeded in Quadratic search.
    -- Step size scaled by   0.064
 Iteration  1 RMS(Cart)=  0.01144306 RMS(Int)=  0.00004011
 Iteration  2 RMS(Cart)=  0.00005148 RMS(Int)=  0.00000293
 Iteration  3 RMS(Cart)=  0.00000000 RMS(Int)=  0.00000293
 Variable       Old X    -DE/DX   Delta X   Delta X   Delta X     New X
                                 (Linear)    (Quad)   (Total)
    R1        2.84912  -0.02556   0.00000  -0.00342  -0.00342   2.84570
    R2        2.08381   0.01058   0.00000   0.00177   0.00177   2.08557
    R3        2.08283   0.01032   0.00000   0.00184   0.00184   2.08467
    R4        2.09017   0.00913   0.00000   0.00158   0.00158   2.09175
    R5        4.36328   0.00260   0.00000  -0.01790  -0.01790   4.34537
    R6        2.58642  -0.02545   0.00000  -0.00003  -0.00003   2.58639
    R7        2.07166   0.00381   0.00000   0.00082   0.00082   2.07248
    R8        2.28862   0.00741   0.00000   0.00047   0.00047   2.28909
    R9        2.07119  -0.00250   0.00000  -0.00140  -0.00140   2.06979
   R10        2.51391   0.01015   0.00000   0.00335   0.00335   2.51726
   R11        2.84476  -0.01007   0.00000  -0.00142  -0.00142   2.84334
   R12        2.68350  -0.00048   0.00000   0.00043   0.00043   2.68392
   R13        2.07952   0.01203   0.00000   0.00201   0.00201   2.08153
   R14        2.08027   0.01265   0.00000   0.00195   0.00195   2.08222
   R15        2.08760   0.00944   0.00000   0.00162   0.00162   2.08922
   R16        2.20838  -0.00418   0.00000  -0.00016  -0.00016   2.20821
   R17        2.06440   0.00181   0.00000   0.00053   0.00053   2.06493
   R18        2.06661   0.00192   0.00000   0.00048   0.00048   2.06708
    A1        1.94073  -0.00022   0.00000   0.00040   0.00040   1.94113
    A2        1.95883  -0.00470   0.00000  -0.00140  -0.00140   1.95743
    A3        1.92995  -0.00391   0.00000  -0.00041  -0.00041   1.92954
    A4        1.88595   0.00248   0.00000   0.00017   0.00017   1.88612
    A5        1.87692   0.00265   0.00000   0.00043   0.00043   1.87735
    A6        1.86795   0.00428   0.00000   0.00091   0.00091   1.86885
    A7        1.68096  -0.00112   0.00000  -0.00145  -0.00146   1.67951
    A8        2.14156  -0.00156   0.00000  -0.00093  -0.00093   2.14062
    A9        2.02706  -0.00075   0.00000  -0.00047  -0.00047   2.02659
   A10        1.77518  -0.00096   0.00000  -0.00109  -0.00110   1.77409
   A11        1.54130  -0.00150   0.00000   0.00148   0.00148   1.54277
   A12        2.06467   0.00356   0.00000   0.00184   0.00184   2.06652
   A13        1.77554  -0.00658   0.00000   0.00122   0.00122   1.77676
   A14        2.21356  -0.00842   0.00000  -0.01312  -0.01312   2.20044
   A15        2.29376   0.01500   0.00000   0.01190   0.01190   2.30566
   A16        2.52667   0.00397   0.00000  -0.01283  -0.01283   2.51384
   A17        2.09363   0.00584   0.00000   0.00095   0.00094   2.09457
   A18        2.04473   0.00818   0.00000   0.00153   0.00152   2.04625
   A19        2.08956  -0.01343   0.00000  -0.00509  -0.00509   2.08446
   A20        1.91297  -0.00228   0.00000  -0.00089  -0.00089   1.91209
   A21        1.91729   0.00297   0.00000   0.00126   0.00126   1.91855
   A22        1.95354  -0.00343   0.00000  -0.00049  -0.00049   1.95304
   A23        1.89899   0.00014   0.00000  -0.00019  -0.00019   1.89880
   A24        1.88554   0.00207   0.00000   0.00041   0.00041   1.88595
   A25        1.89448   0.00061   0.00000  -0.00010  -0.00010   1.89438
   A26        2.11715   0.00039   0.00000  -0.00005  -0.00005   2.11710
   A27        2.11394   0.00237   0.00000   0.00090   0.00090   2.11485
   A28        2.03881  -0.00203   0.00000  -0.00120  -0.00120   2.03761
   A29        3.11713  -0.00032   0.00000  -0.00131  -0.00131   3.11582
   A30        3.17609  -0.00150   0.00000  -0.00023  -0.00023   3.17587
    D1       -1.35796   0.00029   0.00000   0.00179   0.00179  -1.35618
    D2        0.53191  -0.00220   0.00000  -0.00090  -0.00090   0.53101
    D3       -2.95000   0.00262   0.00000   0.00091   0.00091  -2.94909
    D4        0.75695   0.00004   0.00000   0.00131   0.00131   0.75826
    D5        2.64682  -0.00246   0.00000  -0.00138  -0.00138   2.64545
    D6       -0.83508   0.00236   0.00000   0.00043   0.00043  -0.83465
    D7        2.84136  -0.00032   0.00000   0.00126   0.00126   2.84262
    D8       -1.55195  -0.00282   0.00000  -0.00143  -0.00143  -1.55338
    D9        1.24933   0.00201   0.00000   0.00038   0.00038   1.24971
   D10        2.03451   0.00017   0.00000   0.00254   0.00254   2.03705
   D11       -1.08190  -0.00037   0.00000   0.00210   0.00210  -1.07980
   D12       -0.15263   0.00246   0.00000   0.00432   0.00432  -0.14831
   D13        3.01415   0.00192   0.00000   0.00388   0.00388   3.01803
   D14       -2.22204  -0.00078   0.00000   0.00219   0.00219  -2.21985
   D15        0.94473  -0.00132   0.00000   0.00176   0.00176   0.94649
   D16        2.87452   0.00470   0.00000   0.00030   0.00030   2.87483
   D17       -0.08711  -0.00007   0.00000   0.00275   0.00275  -0.08436
   D18       -1.56809   0.00200   0.00000  -0.00267  -0.00267  -1.57076
   D19        1.75346  -0.00277   0.00000  -0.00023  -0.00023   1.75323
   D20        0.08017   0.00060   0.00000  -0.00110  -0.00110   0.07907
   D21       -2.88146  -0.00417   0.00000   0.00134   0.00134  -2.88013
   D22       -0.00885   0.00066   0.00000   0.00236   0.00236  -0.00650
   D23        3.10586   0.00071   0.00000   0.00228   0.00228   3.10813
   D24       -1.73263  -0.00019   0.00000  -0.00587  -0.00588  -1.73851
   D25        1.76077   0.00073   0.00000   0.00314   0.00315   1.76392
   D26        2.77003  -0.00103   0.00000   0.00468   0.00467   2.77470
   D27        0.68440  -0.00162   0.00000   0.00469   0.00468   0.68908
   D28       -1.42146  -0.00216   0.00000   0.00428   0.00428  -1.41719
   D29       -0.73240   0.00250   0.00000  -0.00320  -0.00320  -0.73559
   D30       -2.81803   0.00191   0.00000  -0.00319  -0.00319  -2.82122
   D31        1.35929   0.00137   0.00000  -0.00360  -0.00359   1.35570
         Item               Value     Threshold  Converged?
 Maximum Force            0.025555     0.000450     NO 
 RMS     Force            0.006362     0.000300     NO 
 Maximum Displacement     0.037593     0.001800     NO 
 RMS     Displacement     0.011452     0.001200     NO 
 Predicted change in Energy=-5.401783D-04
 GradGradGradGradGradGradGradGradGradGradGradGradGradGradGradGradGradGrad

                          Input orientation:                          
 ---------------------------------------------------------------------
 Center     Atomic      Atomic             Coordinates (Angstroms)
 Number     Number       Type             X           Y           Z
 ---------------------------------------------------------------------
      1          6           0       -2.839893   -1.032848    0.166434
      2          6           0       -1.920275   -0.187537   -0.674650
      3          6           0       -1.069488    1.058156    1.060856
      4          7           0        0.101875    0.750575    1.035628
      5          6           0        1.005823   -0.001487    0.409759
      6          6           0        1.435978   -1.314021    1.006527
      7          6           0        1.846301    0.644089   -0.535756
      8          7           0        2.535247    1.134834   -1.341983
      9          6           0       -0.778809   -0.681945   -1.245475
     10          1           0       -2.282514   -1.826116    0.693759
     11          1           0       -3.380557   -0.435733    0.920156
     12          1           0       -3.602867   -1.525072   -0.466674
     13          1           0       -2.351359    0.734035   -1.084087
     14          1           0       -1.640740    1.720778    1.719839
     15          1           0        1.868158   -1.952639    0.219964
     16          1           0        0.566710   -1.830029    1.444948
     17          1           0        2.198724   -1.178188    1.795228
     18          1           0       -0.260809   -0.139834   -2.040343
     19          1           0       -0.443833   -1.704288   -1.047681
 ---------------------------------------------------------------------
                    Distance matrix (angstroms):
                    1          2          3          4          5
     1  C    0.000000
     2  C    1.505878   0.000000
     3  C    2.882121   2.299473   0.000000
     4  N    3.548252   2.809662   1.211335   0.000000
     5  C    3.989040   3.126117   2.419439   1.332077   0.000000
     6  C    4.366679   3.919153   3.450729   2.458298   1.504630
     7  C    5.026490   3.859792   3.349992   2.350236   1.420271
     8  N    5.988847   4.695282   4.332854   3.423739   2.588235
     9  C    2.522833   1.368658   2.903723   2.833928   2.527397
    10  H    1.103638   2.165341   3.150432   3.527255   3.771351
    11  H    1.103159   2.176564   2.755457   3.680760   4.437275
    12  H    1.106906   2.159483   3.927395   4.600065   4.932492
    13  H    2.219086   1.096708   2.519728   3.242194   3.747431
    14  H    3.381344   3.074636   1.095288   2.108589   3.418596
    15  H    4.797356   4.274125   4.289726   3.330530   2.141645
    16  H    3.724921   3.657263   3.341599   2.653889   2.146626
    17  H    5.297334   4.903860   4.027622   2.948540   2.174203
    18  H    3.509845   2.149702   3.421488   3.222727   2.761611
    19  H    2.768756   2.149318   3.531072   3.265628   2.669301
                    6          7          8          9         10
     6  C    0.000000
     7  C    2.526103   0.000000
     8  N    3.566621   1.168537   0.000000
     9  C    3.221229   3.025437   3.780603   0.000000
    10  H    3.766596   4.965958   6.010182   2.707561   0.000000
    11  H    4.896719   5.532246   6.525388   3.394064   1.786091
    12  H    5.254030   5.865447   6.746681   3.048393   1.783414
    13  H    4.786347   4.234277   4.909792   2.122253   3.117668
    14  H    4.380069   4.290271   5.211233   3.912683   3.747689
    15  H    1.101497   2.704549   3.523801   3.281556   4.179542
    16  H    1.101863   3.417865   4.520236   3.219766   2.946588
    17  H    1.105568   2.979661   3.912213   4.284604   4.659886
    18  H    3.679839   2.705223   3.151256   1.092713   3.795544
    19  H    2.811720   3.319887   4.125790   1.093854   2.535390
                   11         12         13         14         15
    11  H    0.000000
    12  H    1.777464   0.000000
    13  H    2.538621   2.655379   0.000000
    14  H    2.883920   4.377936   3.056246   0.000000
    15  H    5.508202   5.530498   5.169438   5.296790   0.000000
    16  H    4.219051   4.597029   4.635253   4.190063   1.791476
    17  H    5.696084   6.236585   5.714044   4.811566   1.786199
    18  H    4.311025   3.945208   2.459364   4.416453   3.595518
    19  H    3.755791   3.217015   3.096030   4.563204   2.648378
                   16         17         18         19
    16  H    0.000000
    17  H    1.791944   0.000000
    18  H    3.960909   4.673230   0.000000
    19  H    2.692621   3.916889   1.861824   0.000000
 Stoichiometry    C7H10N2
 Framework group  C1[X(C7H10N2)]
 Deg. of freedom    51
 Full point group                 C1      NOp   1
 Largest Abelian subgroup         C1      NOp   1
 Largest concise Abelian subgroup C1      NOp   1
                         Standard orientation:                         
 ---------------------------------------------------------------------
 Center     Atomic      Atomic             Coordinates (Angstroms)
 Number     Number       Type             X           Y           Z
 ---------------------------------------------------------------------
      1          6           0        2.910853    0.062199   -0.384112
      2          6           0        1.776117   -0.867251   -0.043279
      3          6           0        0.822966    0.479541    1.558354
      4          7           0       -0.258938    0.718863    1.068922
      5          6           0       -1.034607    0.500146    0.008296
      6          6           0       -1.139857    1.539804   -1.074269
      7          6           0       -2.059149   -0.474330    0.142023
      8          7           0       -2.893472   -1.290025    0.205451
      9          6           0        0.720071   -1.083510   -0.886619
     10          1           0        2.569746    0.888452   -1.031391
     11          1           0        3.373535    0.501319    0.515920
     12          1           0        3.707963   -0.480574   -0.927486
     13          1           0        1.976681   -1.606383    0.741721
     14          1           0        1.294847    0.804636    2.491787
     15          1           0       -1.490678    1.067962   -2.005712
     16          1           0       -0.152444    1.993655   -1.256307
     17          1           0       -1.851841    2.342396   -0.807428
     18          1           0        0.042896   -1.929012   -0.743155
     19          1           0        0.617802   -0.523912   -1.820915
 ---------------------------------------------------------------------
 Rotational constants (GHZ):           2.5308445           1.0445934           1.0012099
 Standard basis: VSTO-6G (5D, 7F)
 There are    46 symmetry adapted cartesian basis functions of A   symmetry.
 There are    46 symmetry adapted basis functions of A   symmetry.
    46 basis functions,   276 primitive gaussians,    46 cartesian basis functions
    24 alpha electrons       24 beta electrons
       nuclear repulsion energy       244.3083969735 Hartrees.
 Integral buffers will be    131072 words long.
 Regular integral format.
 Two-electron integral symmetry is turned off.
 ------------------------------------------------------------------------------
 Polarizable Continuum Model (PCM)
 =================================
 Model                : PCM.
 Atomic radii         : SMD-Coulomb.
 Polarization charges : Total charges.
 Charge compensation  : None.
 Solution method      : Matrix inversion.
 Cavity type          : VdW (van der Waals Surface) (Alpha=1.000).
 Cavity algorithm     : GePol (No added spheres)
                        Default sphere list used, NSphG=   19.
                        Lebedev-Laikov grids with approx.  5.0 points / Ang**2.
                        Smoothing algorithm: York/Karplus (Gamma=1.0000).
                        Polarization charges: spherical gaussians, with
                                              point-specific exponents (IZeta= 3).
                        Self-potential: point-specific (ISelfS= 7).
                        Self-field    : sphere-specific E.n sum rule (ISelfD= 2).
 1st derivatives      : Analytical E(r).r(x)/FMM algorithm (CHGder, D1EAlg=3).
                        Cavity 1st derivative terms included.
 Solvent              : Water, Eps=  78.355300 Eps(inf)=   1.777849
 ------------------------------------------------------------------------------
 Spheres list:
 ISph  on   Nord     Re0    Alpha      Xe            Ye            Ze
    1   C      1    1.8500  1.000      2.910853      0.062199     -0.384112
    2   C      2    1.8500  1.000      1.776117     -0.867251     -0.043279
    3   C      3    1.8500  1.000      0.822966      0.479541      1.558354
    4   N      4    1.8900  1.000     -0.258938      0.718863      1.068922
    5   C      5    1.8500  1.000     -1.034607      0.500146      0.008296
    6   C      6    1.8500  1.000     -1.139857      1.539804     -1.074269
    7   C      7    1.8500  1.000     -2.059149     -0.474330      0.142023
    8   N      8    1.8900  1.000     -2.893472     -1.290025      0.205451
    9   C      9    1.8500  1.000      0.720071     -1.083510     -0.886619
   10   H     10    1.2000  1.000      2.569746      0.888452     -1.031391
   11   H     11    1.2000  1.000      3.373535      0.501319      0.515920
   12   H     12    1.2000  1.000      3.707963     -0.480574     -0.927486
   13   H     13    1.2000  1.000      1.976681     -1.606383      0.741721
   14   H     14    1.2000  1.000      1.294847      0.804636      2.491787
   15   H     15    1.2000  1.000     -1.490678      1.067962     -2.005712
   16   H     16    1.2000  1.000     -0.152444      1.993655     -1.256307
   17   H     17    1.2000  1.000     -1.851841      2.342396     -0.807428
   18   H     18    1.2000  1.000      0.042896     -1.929012     -0.743155
   19   H     19    1.2000  1.000      0.617802     -0.523912     -1.820915
 ------------------------------------------------------------------------------
 ------------------------------------------------------------------------------
 Atomic radii for non-electrostatic terms: SMD-CDS.
 ------------------------------------------------------------------------------
 Nuclear repulsion after PCM non-electrostatic terms =      244.3196711361 Hartrees.
 Do NDO integrals.
 One-electron integrals computed using PRISM.
 NBasis=    46 RedAO= F EigKep=  0.00D+00  NBF=    46
 NBsUse=    46 1.00D-04 EigRej=  0.00D+00 NBFU=    46
 Initial guess from the checkpoint file:  "/local/jobs/447481/Gau-2580865.chk"
 B after Tr=     0.000000   -0.000000   -0.000000
         Rot=    0.999994   -0.002963   -0.001098    0.001565 Ang=  -0.40 deg.
 Keep J ints in memory in canonical form, NReq=1678043.
 Overlap will be assumed to be unity.
 Requested convergence on RMS density matrix=1.00D-08 within 128 cycles.
 Requested convergence on MAX density matrix=1.00D-06.
 Requested convergence on             energy=1.00D-06.
 No special actions if energy rises.
 Inv3:  Mode=1 IEnd=     7853772.
 Iteration    1 A*A^-1 deviation from unit magnitude is 3.11D-15 for    929.
 Iteration    1 A*A^-1 deviation from orthogonality  is 3.21D-15 for    750    230.
 Iteration    1 A^-1*A deviation from unit magnitude is 3.55D-15 for    929.
 Iteration    1 A^-1*A deviation from orthogonality  is 2.64D-14 for    654    600.
 Error on total polarization charges = -0.00036
 SCF Done:  E(RAM1) =  0.184268571170     A.U. after   13 cycles
            NFock= 12  Conv=0.55D-08     -V/T= 1.0022
 SMD-CDS (non-electrostatic) energy       (kcal/mol) =       7.07
 (included in total energy above)
 D1PCM: PCM CHGder 1st derivatives, ID1Alg=3 FixD1E=F DoIter=F DoCFld=F I1PDM=0.
 Calling FoFJK, ICntrl=      2127 FMM=F ISym2X=0 I1Cent= 0 IOpClX= 0 NMat=1 NMatS=1 NMatT=0.
 ***** Axes restored to original set *****
 -------------------------------------------------------------------
 Center     Atomic                   Forces (Hartrees/Bohr)
 Number     Number              X              Y              Z
 -------------------------------------------------------------------
      1        6           0.018901549    0.014319499   -0.012026647
      2        6           0.001032816   -0.026034812   -0.011797417
      3        6           0.003803356    0.012095509    0.017577870
[...]
 0171387,0.00221870,0.00184406,-0.00241435,-0.03847232,-0.04646169,0.03
 776026,0.01142572,-0.00898800,-0.20669431,0.13672831,0.22076507,-0.002
 82456,-0.00187485,-0.00341139,-0.01970175,0.03119370,0.03600575,-0.150
 96135,0.03001696,-0.01036748,-0.17470099,0.16720155,0.17826711,0.55567
 416,-0.00129914,-0.00141770,-0.00282769,-0.01144057,0.02011862,0.02576
 162,0.03823345,-0.02938000,-0.02668455,0.15210781,-0.17130611,-0.08791
 287,-0.19499500,0.60503549,-0.00139719,-0.00209367,-0.00390412,-0.0190
 7072,0.03371917,0.04066604,0.03257782,-0.02862556,-0.02725756,0.123579
 03,-0.07957914,-0.12523547,-0.30894205,-0.12321106,0.44789331,0.000200
 34,0.00026065,0.00040291,0.00061502,-0.00155486,-0.00298085,0.00109814
 ,0.00623451,0.00159331,-0.01805314,0.03061293,-0.00569293,-0.07419563,
 0.06963888,-0.02008217,0.51716050,0.00000616,0.00008139,-0.00006255,-0
 .00031806,0.00111665,0.00105424,-0.00711602,0.00026546,-0.00256282,0.0
 4518696,-0.04900721,-0.00660414,0.05387075,-0.21926821,0.07129180,-0.0
 1550746,0.55990117,0.00014885,0.00014916,0.00040836,0.00055067,-0.0013
 1403,-0.00218886,-0.00334366,0.00105699,-0.00176903,0.01697238,-0.0203
 0288,0.00691702,-0.02648713,0.08494122,-0.09040099,-0.01555228,-0.0231
 7746,0.52452657,0.00025725,-0.00010892,0.00059850,0.00204928,-0.005180
 63,-0.00473591,0.01300916,-0.00038639,0.01435596,-0.05903016,-0.003890
 84,0.02967961,-0.15416977,-0.07385703,0.14250917,0.00315400,-0.0065936
 8,0.00017008,0.72984050,0.00020294,-0.00004902,0.00045396,0.00143796,-
 0.00302327,-0.00329061,0.00889983,-0.00060791,0.00299111,0.00467059,0.
 01364655,-0.01258848,-0.07282013,-0.13711098,0.10208024,-0.01867147,-0
 .03597093,0.03117723,0.40915737,0.43863820,-0.00055158,-0.00010368,-0.
 00073488,-0.00166557,0.00343202,0.00432092,-0.02678921,-0.00250172,-0.
 00783878,0.08218683,-0.01230412,-0.04122472,0.09414644,0.09356857,-0.1
 8639792,0.01253549,0.03345001,-0.01716349,-0.70021920,-0.48218163,0.88
 040280,-0.00010138,0.00005107,-0.00022737,-0.00067496,0.00105832,0.001
 09751,-0.00344013,-0.00028523,-0.00209561,0.00549718,-0.00133147,0.000
 64137,-0.01739888,-0.02550634,0.03443802,-0.00285310,0.00014550,0.0019
 2399,-0.51494976,-0.32225827,0.52900848,0.53032058,-0.00006717,0.00002
 693,-0.00017509,-0.00042346,0.00067984,0.00079866,-0.00214969,-0.00019
 811,-0.00032810,-0.00005874,-0.00411003,0.00106417,-0.02801252,0.00802
 039,0.02573094,0.00098771,0.00121675,-0.00045853,-0.32212843,-0.270088
 09,0.36391763,0.34967513,0.26486106,0.00016196,-0.00003531,0.00031120,
 0.00054588,-0.00110293,-0.00141106,0.00783528,0.00093398,0.00135287,-0
 .01048718,0.00582120,0.00446236,0.04371874,0.02326040,-0.02406049,0.00
 178301,-0.00126858,0.00009397,0.52875741,0.36400822,-0.63733036,-0.566
 90837,-0.39153958,0.65919014,-0.03675094,0.00309957,0.03436534,-0.3948
 5681,0.10425958,0.07779249,0.05779385,0.03774007,0.06635018,-0.0401644
 0,-0.02739168,-0.04939964,0.04652558,0.03060388,0.04572458,-0.00631822
 ,0.00343509,-0.00583577,-0.01598262,-0.00994719,0.00895147,0.00307988,
 0.00201489,-0.00337667,0.55563708,-0.01303060,0.00784072,0.00531830,0.
 16909700,-0.14572008,-0.05397400,-0.00575873,-0.00774723,-0.01250539,0
 .00100568,-0.00586951,-0.01233185,-0.00168224,-0.00997567,-0.00304592,
 0.00135976,0.00077589,0.00143074,-0.00250096,-0.00129996,-0.00071992,0
 .00015347,0.00003485,0.00015219,-0.18254361,0.56511952,0.03145356,-0.0
 0129969,-0.01283157,0.17082568,-0.07213547,-0.14171046,0.00657763,-0.0
 0207675,0.00052426,-0.00949665,-0.01998317,-0.02706359,0.01444083,0.00
 751781,-0.00090414,-0.00401466,0.00129492,-0.00352681,-0.00661176,-0.0
 0399377,0.00571764,0.00195588,0.00123073,-0.00205822,-0.29470789,-0.06
 739098,0.40875629,-0.10061249,0.08147419,-0.06930409,0.00876385,-0.013
 05411,0.01089990,0.00033437,0.00017937,0.00029651,-0.00025939,-0.00014
 492,-0.00016071,0.00011945,0.00002494,0.00012562,-0.00006784,-0.000003
 18,0.00002722,-0.00001294,-0.00000878,-0.00004320,-0.00002063,-0.00001
 760,0.00004483,-0.00040259,-0.00051083,0.00073078,0.11683855,0.0802239
 3,-0.14664954,0.09112693,0.00089406,-0.01856163,0.01999019,0.00009639,
 -0.00002552,0.00001069,-0.00017089,0.00003049,0.00006054,0.00027478,0.
 00001702,-0.00006169,-0.00001939,0.00003780,-0.00002545,-0.00010881,-0
 .00007854,0.00016923,0.00004165,0.00002843,-0.00006448,-0.00007216,0.0
 0018263,-0.00002516,-0.09344212,0.17435773,-0.06778535,0.09071853,-0.1
 1964377,-0.00220923,0.02177413,-0.01496557,-0.00007868,-0.00010515,-0.
 00008467,0.00004409,0.00002276,0.00006493,-0.00010989,-0.00006557,-0.0
 0007767,0.00001131,0.00000138,0.00003688,0.00000401,0.00001118,-0.0000
 6345,-0.00001128,-0.00000863,0.00002543,0.00076427,0.00016050,-0.00045
 922,0.07930021,-0.11520143,0.14149202,-0.11042888,0.07958875,0.0784055
 1,-0.01864211,0.00585337,0.02169748,-0.00179401,-0.00091320,-0.0000678
 5,-0.00014940,0.00010718,0.00000846,0.00017543,-0.00005609,-0.00011844
 ,-0.00002794,0.00000839,-0.00002424,-0.00005135,-0.00004174,0.00013142
 ,0.00002812,0.00002055,-0.00004888,-0.00065673,-0.00143791,0.00168685,
 -0.01021234,0.01753691,0.00645292,0.13393668,0.08067463,-0.12778623,-0
 .08737337,-0.00759686,0.00968303,0.00769520,-0.00091485,-0.00029603,0.
 00035807,-0.00018526,0.00002948,-0.00018744,-0.00010517,-0.00000992,0.
 00005763,0.00001188,-0.00001519,0.00001954,0.00010328,0.00007585,-0.00
 012229,-0.00003993,-0.00002900,0.00006283,-0.00140570,-0.00110925,0.00
 143909,0.01737740,-0.01713357,-0.00765108,-0.09162404,0.14898775,0.077
 96214,-0.08595259,-0.12784327,0.01992646,-0.00509385,-0.01524802,-0.00
 024034,-0.00023259,-0.00001654,0.00002850,0.00025784,0.00020294,-0.000
 18267,-0.00019120,-0.00031593,0.00002046,-0.00000027,0.00004060,-0.000
 00343,0.00001294,-0.00002009,0.00000225,-0.00000162,0.00000063,0.00145
 075,0.00105532,-0.00107351,-0.00537409,0.00678882,0.00884610,-0.099683
 76,0.10267488,0.15119632,-0.13483114,-0.07517370,-0.09129302,-0.022744
 68,-0.02024792,-0.00320299,-0.00038744,-0.00077679,0.00002293,-0.00018
 087,0.00031281,0.00012650,-0.00052730,-0.00047867,-0.00058632,0.000065
 43,-0.00001881,0.00006635,0.00012953,0.00011642,-0.00016096,-0.0000537
 7,-0.00004526,0.00007910,0.00101713,-0.00089760,0.00025112,-0.01304592
 ,-0.00386727,-0.01798848,0.00841435,0.00420259,0.00541435,0.16203533,-
 0.07531133,-0.10074804,-0.07290262,-0.02241715,-0.01211885,-0.00271082
 ,-0.00069887,-0.00075614,-0.00007076,-0.00015943,0.00030233,0.00016109
 ,-0.00064592,-0.00051294,-0.00065134,0.00008681,-0.00001621,0.00008901
 ,0.00015275,0.00011217,-0.00020981,-0.00006449,-0.00004900,0.00009751,
 0.00135905,-0.00058847,0.00001982,0.00911855,0.00836200,0.00968520,-0.
 00837937,-0.01224625,-0.01939811,0.09680707,0.11825852,-0.09049726,-0.
 07181724,-0.12562920,0.00879670,0.00570211,0.00886073,0.00017736,0.000
 58444,0.00034798,0.00041353,-0.00034384,-0.00023056,0.00050785,0.00056
 566,0.00080504,-0.00006016,0.00001571,-0.00007088,-0.00013333,-0.00009
 904,0.00009304,0.00005241,0.00004208,-0.00006567,-0.00042443,0.0006099
 7,-0.00061323,-0.01781093,-0.00394048,-0.01426996,-0.00813305,-0.01687
 624,-0.01531469,0.10717731,0.08567417,0.14635346,0.00538118,-0.0142499
 9,0.00900655,-0.07491725,0.08903250,-0.03160906,-0.00574623,-0.0019987
 0,-0.00955367,0.00187915,0.00073298,0.00186259,-0.00219086,-0.00092456
 ,-0.00195707,0.00002618,-0.00007474,-0.00002568,0.00034381,0.00017358,
 -0.00015355,-0.00006877,-0.00002169,0.00002783,-0.01290741,0.02825831,
 -0.00445811,-0.00138578,-0.00114471,0.00125623,0.00013676,-0.00016791,
 0.00021420,-0.00014110,0.00004079,0.00002594,0.09094206,-0.00081754,-0
 .02078802,0.01604875,0.08259343,-0.22713690,0.08978179,-0.00124922,-0.
 00017201,-0.00253519,-0.00013807,0.00078762,0.00091542,-0.00277092,-0.
 00162877,-0.00239983,0.00008897,-0.00024122,0.00008069,0.00100498,0.00
 064457,-0.00051920,-0.00026501,-0.00017315,0.00025571,0.02223920,-0.01
 644888,0.00328557,-0.00122036,-0.00039223,0.00069209,-0.00007116,0.000
 14635,0.00018177,-0.00014958,-0.00014287,0.00001837,-0.10046407,0.2651
 0309,0.00032398,0.01976139,-0.00775763,-0.03959790,0.09778969,-0.06462
 116,-0.01064451,-0.00372580,-0.01575798,0.00263875,0.00159877,0.003477
 92,-0.00329460,-0.00218918,-0.00405096,0.00012650,-0.00008887,0.000045
 89,0.00048548,0.00022785,-0.00004381,-0.00004691,-0.00001350,-0.000026
 86,0.01274643,-0.00844911,0.00679281,0.00134020,0.00118781,-0.00063322
 ,0.00000845,0.00020556,-0.00040955,0.00000266,0.00019501,-0.00025518,0
 .03335223,-0.10581219,0.08250008,0.00061387,0.00037390,-0.00034422,0.0
 0198817,-0.00392176,-0.00471126,-0.16844942,0.10873802,0.10427205,-0.0
 4279043,0.02079621,0.01380772,0.01074629,-0.00191110,-0.00777242,-0.00
 069024,0.00131459,0.00039904,-0.00316235,-0.00223306,0.00569823,0.0011
 8292,0.00084921,-0.00210817,-0.00485625,0.00005959,-0.00119774,-0.0000
 3620,-0.00003170,-0.00003585,-0.00025757,0.00013200,0.00017951,-0.0000
 2410,-0.00001367,0.00009739,0.00021644,-0.00008974,0.00041654,0.204817
 05,0.00025956,0.00002199,-0.00011641,0.00083871,-0.00139002,-0.0032771
 9,0.12999263,-0.11596075,-0.06481286,-0.01011033,0.00603774,0.00050557
 ,0.00363967,0.00311353,-0.00837340,-0.00193773,-0.00005752,0.00029727,
 0.00334842,0.00049454,0.00223077,-0.00037815,0.00007297,-0.00075246,-0
 .00108981,0.00014347,-0.00004432,0.00004931,-0.00000410,0.00004718,-0.
 00056420,-0.00036718,-0.00008067,0.00006818,0.00008953,0.00000516,-0.0
 0011381,-0.00012959,-0.00023735,-0.12411463,0.10752269,0.00010598,-0.0
 0000447,-0.00019725,0.00180317,-0.00448656,-0.00401948,0.13321678,-0.0
 7154677,-0.09142032,-0.02888717,0.01030732,0.00791240,0.00735334,-0.00
 965759,-0.00342121,0.00155400,0.00139794,0.00151863,-0.00335052,-0.000
 41582,0.00239450,0.00044782,-0.00001262,-0.00040002,-0.00307936,0.0001
 1146,-0.00049721,-0.00002133,-0.00004451,-0.00002437,-0.00025553,-0.00
 021275,-0.00010884,-0.00003253,-0.00001838,0.00010478,0.00010075,-0.00
 000622,-0.00009287,-0.10946658,0.07468199,0.08796370,0.00000236,0.0000
 1609,0.00001462,-0.00002873,-0.00008566,-0.00018737,0.00094327,0.00015
 468,0.00038512,-0.00123749,0.00131919,-0.00050035,-0.00488547,0.014880
 68,0.00570503,-0.08171377,0.05243434,0.07726717,0.00020196,0.00008433,
 0.00002336,-0.00006061,-0.00002032,0.00005745,-0.00011516,0.00011314,0
 .00016606,0.00000026,-0.00000572,-0.00000408,-0.00000376,0.00000157,-0
 .00000198,0.00000590,0.00000320,-0.00000113,-0.00000427,0.00002055,0.0
 0001846,-0.00013166,-0.00005459,-0.00008506,0.09357824,-0.00000875,0.0
 0000020,0.00000854,-0.00005756,0.00019824,0.00019993,-0.00141498,-0.00
 035879,-0.00083708,0.00391883,-0.00382606,0.00106228,0.01742020,-0.026
 53919,-0.01553919,0.05167463,-0.10596555,-0.09555020,-0.00029404,-0.00
 235203,0.00103151,0.00020489,-0.00018098,-0.00008710,0.00024031,0.0000
 7730,-0.00000186,-0.00000290,-0.00000267,-0.00000255,-0.00000359,0.000
 00037,0.00000481,0.00000355,0.00000021,0.00000185,-0.00002781,-0.00001
 526,-0.00002890,0.00018650,0.00025775,0.00023217,-0.06793434,0.1323509
 0,-0.00001096,0.00003034,-0.00003312,-0.00009698,0.00006777,-0.0000518
 7,-0.00010508,0.00028644,0.00029203,-0.00183531,0.00229890,-0.00023483
 ,-0.00063289,-0.00059650,0.00779049,0.07768008,-0.09718917,-0.17783774
 ,0.00020810,0.00044151,-0.00008934,0.00003813,0.00010768,-0.00007369,0
 .00012638,0.00012533,0.00017503,-0.00000211,0.00000825,-0.00000393,0.0
 0000569,-0.00001079,-0.00000053,-0.00001008,-0.00001124,0.00000804,-0.
 00001441,-0.00003182,0.00002729,0.00008221,-0.00021861,-0.00009491,-0.
 09139897,0.11370398,0.20679062,-0.00008440,0.00002523,-0.00005196,-0.0
 0006878,0.00015850,0.00007812,-0.00031620,-0.00044208,-0.00012719,0.00
 071444,0.00130383,-0.00002165,0.00703621,-0.00003883,-0.00066146,-0.18
 205627,-0.09990139,0.07336711,-0.00034131,0.00186830,-0.00097561,0.000
 55098,-0.00003252,-0.00038806,0.00031325,0.00017957,-0.00003802,0.0002
 4142,-0.00011666,0.00011986,-0.00000009,-0.00000060,-0.00001211,-0.000
 02250,0.00000977,-0.00000744,-0.00001593,-0.00003540,-0.00001020,0.000
 17648,-0.00001124,-0.00001781,-0.01346488,-0.00443169,0.01364984,0.211
 33207,0.00003798,0.00003158,0.00003721,0.00006773,-0.00011306,-0.00021
 925,0.00015059,0.00051831,0.00020962,0.00053346,-0.00452224,-0.0001895
 2,-0.01525961,-0.02650439,0.01847853,-0.09725274,-0.10865295,0.0484446
 2,0.00071334,-0.00325607,0.00180364,-0.00056303,0.00021600,0.00024831,
 -0.00028192,0.00010255,-0.00014967,0.00007814,-0.00004625,0.00000977,-
 0.00000359,0.00000029,-0.00000040,0.00000280,0.00000699,-0.00000149,0.
 00000198,-0.00000022,0.00000872,-0.00004290,-0.00014462,0.00009267,0.0
 0694430,0.00771497,-0.00392316,0.11631365,0.13607416,-0.00001966,0.000
 00401,0.00001720,-0.00002631,-0.00001892,-0.00005483,0.00016610,-0.000
 10338,0.00010695,-0.00011708,0.00020825,0.00032939,0.00620933,0.014939
 02,-0.00528816,0.07240760,0.04962856,-0.07695302,-0.00025792,0.0015511
 9,0.00000466,0.00024063,-0.00014109,-0.00021882,0.00006248,0.00016217,
 0.00006840,-0.00002041,-0.00001580,-0.00005230,-0.00000512,0.00000313,
 -0.00000368,0.00000338,0.00000375,-0.00000166,-0.00000610,0.00001180,0
 .00000372,-0.00002792,0.00009456,-0.00009676,0.02260213,0.00708621,-0.
 01219315,-0.08608043,-0.06507163,0.08799939,0.00000325,0.00000519,0.00
 000993,-0.00000291,0.00005330,0.00001247,-0.00021935,0.00018750,-0.000
 12834,-0.00018371,0.00014382,-0.00085998,-0.00982457,0.01077594,-0.014
 67997,-0.15559680,-0.02638139,-0.11871888,-0.00064935,-0.00060191,0.00
 047952,0.00008657,0.00011197,-0.00007942,0.00008832,0.00019228,-0.0001
 1248,-0.00001024,0.00000208,-0.00000097,-0.00000062,-0.00000139,0.0000
 0456,-0.00000072,0.00000206,-0.00000003,-0.00001440,-0.00001434,-0.000
 01016,-0.00000507,-0.00003754,0.00014033,0.00737198,0.00041408,0.00232
 848,-0.02388173,-0.01150705,-0.01480869,0.18285801,-0.00001315,-0.0000
 4934,-0.00003101,0.00003159,-0.00017031,0.00000464,0.00230714,-0.00083
 089,0.00086109,-0.00244945,0.00113372,0.00162135,0.02161386,-0.0072095
 6,0.02043751,-0.02577579,-0.04406726,-0.02654814,0.00080675,0.00016768
 ,-0.00028992,-0.00016664,-0.00013400,0.00003976,-0.00019537,-0.0002559
 8,0.00010828,-0.00001402,-0.00000470,0.00000024,-0.00000062,0.00000707
 ,0.00000095,0.00000031,-0.00000406,0.00000469,0.00002908,0.00007173,0.
 00001465,-0.00041945,0.00027533,-0.00056534,-0.00774462,-0.00131739,-0
 .01496822,-0.01476327,-0.00140207,-0.00823198,0.02664566,0.05373996,0.
 00000729,0.00001412,0.00000790,-0.00005434,0.00006872,-0.00001652,-0.0
 0059469,0.00025145,-0.00023623,0.00085240,-0.00082978,-0.00064052,-0.0
 1496176,0.01091526,-0.01112035,-0.11889135,-0.02678128,-0.16298279,-0.
 00033480,-0.00008105,0.00014816,-0.00001040,0.00008708,-0.00002816,0.0
 0005758,0.00018693,0.00003850,0.00000839,0.00000130,0.00000200,-0.0000
 0055,-0.00000069,-0.00000164,-0.00000140,0.00000204,0.00000043,-0.0000
 1552,-0.00002732,-0.00000869,0.00009384,-0.00006486,0.00016039,-0.0138
 2173,-0.01129103,-0.02442771,0.00123820,0.00002723,0.00690982,0.146474
 93,0.02750286,0.19219895,-0.00036298,0.00306434,0.00372028,-0.02403353
 ,-0.00539302,0.02945721,-0.00350447,-0.00143159,-0.00294470,0.00263933
 ,-0.00013515,0.00072866,-0.00374817,-0.00049656,-0.00535936,-0.0000059
 6,-0.00029372,-0.00006981,-0.00131975,-0.00047569,-0.00167082,-0.00083
 358,-0.00045976,0.00005097,-0.10002428,-0.06243504,0.10375494,-0.00001
 979,-0.00005055,-0.00002889,-0.00063468,-0.00055378,0.00042474,0.00038
 477,0.00029205,-0.00031409,-0.00107245,-0.00086585,-0.00133034,0.00032
 737,0.00012624,0.00026043,0.00002344,-0.00005442,0.00001175,-0.0000508
 7,-0.00001949,-0.00002625,-0.00003745,0.00011394,-0.00003362,0.1266426
 1,0.00219755,0.00041495,0.00157852,0.00517885,0.00979839,-0.00430586,-
 0.00192810,-0.00100481,-0.00180884,0.00159594,-0.00030930,0.00009396,-
 0.00238760,0.00028060,-0.00221096,0.00001510,-0.00026450,-0.00003166,0
 .00001130,0.00017579,-0.00092744,-0.00052521,-0.00022225,0.00015041,-0
 .06184712,-0.10014797,0.09740289,-0.00008260,-0.00011930,0.00009189,-0
 .00001057,0.00009351,-0.00002873,0.00033843,0.00026535,-0.00037046,-0.
 00045291,-0.00037551,-0.00128628,0.00009392,0.00009082,0.00017131,-0.0
 0000211,0.00000485,-0.00004906,-0.00000252,0.00001390,0.00002235,-0.00
 002012,0.00009596,-0.00002244,0.06776840,0.10824708,0.00227519,0.00094
 232,0.00312590,0.01415517,0.00882491,-0.00620940,-0.00348917,-0.002308
 46,-0.00406158,0.00214428,0.00144111,0.00269237,-0.00572057,-0.0018764
 0,-0.01044439,-0.00004952,-0.00014817,-0.00006425,-0.00188853,-0.00079
 172,-0.00099180,-0.00022430,-0.00008308,-0.00017260,0.11453122,0.09548
 801,-0.18428885,-0.00013200,-0.00021079,0.00013566,-0.00017843,-0.0001
 3751,0.00011634,0.00041287,0.00031787,-0.00036441,-0.00095617,-0.00149
 921,-0.00163248,0.00036709,0.00000203,0.00013049,0.00000840,-0.0000460
 6,0.00002921,-0.00002806,-0.00001478,-0.00003570,-0.00004923,0.0000448
 9,-0.00002063,-0.12574724,-0.11008777,0.20587640,-0.00109925,-0.000705
 66,-0.00164921,-0.01550154,0.03360590,0.00332638,-0.00326130,-0.001579
 20,-0.00297925,0.00230876,0.00045992,0.00115258,-0.00514864,-0.0052612
 2,-0.00403364,-0.00073991,-0.00019399,-0.00083590,0.00068534,0.0004462
 2,-0.00093263,-0.00029303,-0.00022177,0.00033469,-0.05141472,0.0703782
 2,-0.01120634,-0.00021147,-0.00003981,0.00029991,0.00016810,0.00009173
 ,-0.00012970,-0.00009306,-0.00018222,0.00013372,-0.00046114,0.00220417
 ,0.00347428,0.00033570,0.00008920,0.00021352,-0.00048206,0.00016658,-0
 .00002400,-0.00006214,0.00008662,-0.00029575,0.00001826,-0.00000615,-0
 .00001240,0.00562974,-0.00994092,0.00456844,0.06962222,-0.00060786,-0.
 00013285,-0.00136693,0.01351303,-0.01446790,0.00313326,-0.00167153,-0.
 00154777,-0.00248474,0.00078161,0.00175430,0.00242915,-0.00467838,-0.0
 0572218,-0.00600552,-0.00025232,0.00013004,-0.00027903,-0.00024727,-0.
 00011774,0.00027743,0.00005352,0.00002749,-0.00018055,0.07978568,-0.28
 511335,0.05480124,0.00019967,0.00000167,-0.00018079,-0.00000911,-0.000
 03116,0.00000304,-0.00019637,-0.00021449,0.00022479,0.00137138,0.00089
 110,0.00084195,0.00023332,-0.00006739,-0.00002316,-0.00012522,-0.00004
 645,-0.00007190,-0.00008263,-0.00003693,-0.00013206,0.00003026,-0.0000
 4585,0.00004142,0.00129934,-0.01703792,0.01014278,-0.08939779,0.321777
 71,-0.00087214,-0.00139481,-0.00211750,0.00423036,-0.00679472,0.011307
 33,-0.00340369,-0.00219759,-0.00373078,0.00251517,0.00060388,0.0014107
 4,-0.00654264,-0.00625688,-0.00427342,-0.00079128,-0.00025188,-0.00062
 986,0.00076910,0.00048796,-0.00118373,-0.00032226,-0.00021676,0.000408
 54,-0.00609806,0.05361610,-0.04704582,0.00009487,0.00024562,-0.0003248
 0,0.00011889,0.00005633,-0.00004665,-0.00028069,-0.00027218,0.00024170
 ,0.00290258,0.00155895,0.00244223,0.00025049,0.00011260,0.00018945,-0.
 00024719,0.00005282,-0.00007221,-0.00003308,0.00020954,-0.00054162,-0.
 00000184,-0.00000651,0.00001685,-0.00088432,0.02161785,-0.00381994,0.0
 0859522,-0.06117039,0.04776946\\-0.00000483,-0.00000047,-0.00000432,-0
 .00001326,0.00001006,0.00000029,-0.00002455,-0.00000427,0.00000980,0.0
 0001588,-0.00000522,0.00000703,0.00001048,-0.00000871,0.00000624,0.000
 00427,-0.00000761,0.00000088,0.00001401,0.00000502,-0.00000121,0.00000
 024,0.00000547,0.00001218,0.00001036,0.00001482,0.00000695,-0.00000019
 ,-0.00000466,-0.00000771,-0.00000337,-0.00000328,0.00000101,-0.0000020
 1,0.00000491,-0.00000850,0.00000015,0.00000630,-0.00000045,-0.00000026
 ,-0.00000331,0.00000898,-0.00000025,-0.00000270,-0.00000776,-0.0000023
 6,-0.00000804,-0.00000503,0.00000009,-0.00000987,-0.00000205,-0.000002
 28,0.00000797,-0.00000561,-0.00000212,0.00000357,-0.00001072\\\@
 The archive entry for this job was punched.


    THE DOUGHNUT CREED
 AS YOU RAMBLE ON THROUGH LIFE, BROTHER
 WHATEVER BE YOUR GOAL
 KEEP YOUR EYE UPON THE DOUGHNUT
 AND NOT UPON THE HOLE.
 Job cpu time:       0 days  0 hours  0 minutes 13.5 seconds.
 Elapsed time:       0 days  0 hours  0 minutes 13.4 seconds.
 File lengths (MBytes):  RWF=     67 Int=      0 D2E=      0 Chk=     11 Scr=      1
 Normal termination of Gaussian 16 at Wed May 31 13:56:17 2023.
